
                                 *****************
                                 * O   R   C   A *
                                 *****************

                                            #,                                       
                                            ###                                      
                                            ####                                     
                                            #####                                    
                                            ######                                   
                                           ########,                                 
                                     ,,################,,,,,                         
                               ,,#################################,,                 
                          ,,##########################################,,             
                       ,#########################################, ''#####,          
                    ,#############################################,,   '####,        
                  ,##################################################,,,,####,       
                ,###########''''           ''''###############################       
              ,#####''   ,,,,##########,,,,          '''####'''          '####       
            ,##' ,,,,###########################,,,                        '##       
           ' ,,###''''                  '''############,,,                           
         ,,##''                                '''############,,,,        ,,,,,,###''
      ,#''                                            '''#######################'''  
     '                                                          ''''####''''         
             ,#######,   #######,   ,#######,      ##                                
            ,#'     '#,  ##    ##  ,#'     '#,    #''#        ######   ,####,        
            ##       ##  ##   ,#'  ##            #'  '#       #        #'  '#        
            ##       ##  #######   ##           ,######,      #####,   #    #        
            '#,     ,#'  ##    ##  '#,     ,#' ,#      #,         ##   #,  ,#        
             '#######'   ##     ##  '#######'  #'      '#     #####' # '####'        



                  #######################################################
                  #                        -***-                        #
                  #          Department of theory and spectroscopy      #
                  #    Directorship and core code : Frank Neese         #
                  #        Max Planck Institute fuer Kohlenforschung    #
                  #                Kaiser Wilhelm Platz 1               #
                  #                 D-45470 Muelheim/Ruhr               #
                  #                      Germany                        #
                  #                                                     #
                  #                  All rights reserved                #
                  #                        -***-                        #
                  #######################################################



                         Program Version 5.0.4 -  RELEASE  -

 With contributions from (in alphabetic order):
   Daniel Aravena         : Magnetic Suceptibility
   Michael Atanasov       : Ab Initio Ligand Field Theory (pilot matlab implementation)
   Alexander A. Auer      : GIAO ZORA, VPT2 properties, NMR spectrum
   Ute Becker             : Parallelization
   Giovanni Bistoni       : ED, misc. LED, open-shell LED, HFLD
   Martin Brehm           : Molecular dynamics
   Dmytro Bykov           : SCF Hessian
   Vijay G. Chilkuri      : MRCI spin determinant printing, contributions to CSF-ICE
   Dipayan Datta          : RHF DLPNO-CCSD density
   Achintya Kumar Dutta   : EOM-CC, STEOM-CC
   Dmitry Ganyushin       : Spin-Orbit,Spin-Spin,Magnetic field MRCI
   Miquel Garcia          : C-PCM and meta-GGA Hessian, CC/C-PCM, Gaussian charge scheme
   Yang Guo               : DLPNO-NEVPT2, F12-NEVPT2, CIM, IAO-localization
   Andreas Hansen         : Spin unrestricted coupled pair/coupled cluster methods
   Benjamin Helmich-Paris : MC-RPA, TRAH-SCF, COSX integrals
   Lee Huntington         : MR-EOM, pCC
   Robert Izsak           : Overlap fitted RIJCOSX, COSX-SCS-MP3, EOM
   Marcus Kettner         : VPT2
   Christian Kollmar      : KDIIS, OOCD, Brueckner-CCSD(T), CCSD density, CASPT2, CASPT2-K
   Simone Kossmann        : Meta GGA functionals, TD-DFT gradient, OOMP2, MP2 Hessian
   Martin Krupicka        : Initial AUTO-CI
   Lucas Lang             : DCDCAS
   Marvin Lechner         : AUTO-CI (C++ implementation), FIC-MRCC
   Dagmar Lenk            : GEPOL surface, SMD
   Dimitrios Liakos       : Extrapolation schemes; Compound Job, initial MDCI parallelization
   Dimitrios Manganas     : Further ROCIS development; embedding schemes
   Dimitrios Pantazis     : SARC Basis sets
   Anastasios Papadopoulos: AUTO-CI, single reference methods and gradients
   Taras Petrenko         : DFT Hessian,TD-DFT gradient, ASA, ECA, R-Raman, ABS, FL, XAS/XES, NRVS
   Peter Pinski           : DLPNO-MP2, DLPNO-MP2 Gradient
   Christoph Reimann      : Effective Core Potentials
   Marius Retegan         : Local ZFS, SOC
   Christoph Riplinger    : Optimizer, TS searches, QM/MM, DLPNO-CCSD(T), (RO)-DLPNO pert. Triples
   Tobias Risthaus        : Range-separated hybrids, TD-DFT gradient, RPA, STAB
   Michael Roemelt        : Original ROCIS implementation
   Masaaki Saitow         : Open-shell DLPNO-CCSD energy and density
   Barbara Sandhoefer     : DKH picture change effects
   Avijit Sen             : IP-ROCIS
   Kantharuban Sivalingam : CASSCF convergence, NEVPT2, FIC-MRCI
   Bernardo de Souza      : ESD, SOC TD-DFT
   Georgi Stoychev        : AutoAux, RI-MP2 NMR, DLPNO-MP2 response
   Willem Van den Heuvel  : Paramagnetic NMR
   Boris Wezisla          : Elementary symmetry handling
   Frank Wennmohs         : Technical directorship


 We gratefully acknowledge several colleagues who have allowed us to
 interface, adapt or use parts of their codes:
   Stefan Grimme, W. Hujo, H. Kruse, P. Pracht,  : VdW corrections, initial TS optimization,
                  C. Bannwarth, S. Ehlert          DFT functionals, gCP, sTDA/sTD-DF
   Ed Valeev, F. Pavosevic, A. Kumar             : LibInt (2-el integral package), F12 methods
   Garnet Chan, S. Sharma, J. Yang, R. Olivares  : DMRG
   Ulf Ekstrom                                   : XCFun DFT Library
   Mihaly Kallay                                 : mrcc  (arbitrary order and MRCC methods)
   Jiri Pittner, Ondrej Demel                    : Mk-CCSD
   Frank Weinhold                                : gennbo (NPA and NBO analysis)
   Christopher J. Cramer and Donald G. Truhlar   : smd solvation model
   Lars Goerigk                                  : TD-DFT with DH, B97 family of functionals
   V. Asgeirsson, H. Jonsson                     : NEB implementation
   FAccTs GmbH                                   : IRC, NEB, NEB-TS, DLPNO-Multilevel, CI-OPT
                                                   MM, QMMM, 2- and 3-layer-ONIOM, Crystal-QMMM,
                                                   LR-CPCM, SF, NACMEs, symmetry and pop. for TD-DFT,
                                                   nearIR, NL-DFT gradient (VV10), updates on ESD,
                                                   ML-optimized integration grids
   S Lehtola, MJT Oliveira, MAL Marques          : LibXC Library
   Liviu Ungur et al                             : ANISO software


 Your calculation uses the libint2 library for the computation of 2-el integrals
 For citations please refer to: http://libint.valeyev.net

 Your ORCA version has been built with support for libXC version: 5.1.0
 For citations please refer to: https://tddft.org/programs/libxc/

 This ORCA versions uses:
   CBLAS   interface :  Fast vector & matrix operations
   LAPACKE interface :  Fast linear algebra routines
   Shared memory     :  Shared parallel matrices


Your calculation utilizes the atom-pairwise dispersion correction
based on tight binding partial charges (D4)
Cite in your paper:
E.Caldeweyher, C.Bannwarth, S.Grimme, J.Chem.Phys., (2017), 147, 034112.
E.Caldeweyher, S.Ehlert, A.Hansen, H.Neugebauer, S.Grimme, J.Chem.Phys., (2018), in progress.
   

================================================================================

----- Orbital basis set information -----
Your calculation utilizes the basis: def2-SVP
   F. Weigend and R. Ahlrichs, Phys. Chem. Chem. Phys. 7, 3297 (2005).

----- AuxJ basis set information -----
Your calculation utilizes the auxiliary basis: def2/J
   F. Weigend, Phys. Chem. Chem. Phys. 8, 1057 (2006).

================================================================================
                                        WARNINGS
                       Please study these warnings very carefully!
================================================================================

WARNING: Old DensityContainer found on disk!
         Will remove this file - 
         If you want to keep old densities, please start your calculation with a different basename. 


WARNING: Geometry Optimization
  ===> : Switching off AutoStart
         For restart on a previous wavefunction, please use MOREAD

INFO   : the flag for use of the SHARK integral package has been found!

================================================================================
                                       INPUT FILE
================================================================================
NAME = e_c_11.inp
|  1> !B3LYP DEF2-SVP OPT FREQ D4 SOSCF TIGHTOPT
|  2> 
|  3> %geom
|  4> maxIter 1000
|  5> calc_hess true
|  6> recalc_hess 20
|  7> end
|  8> 
|  9> %scf
| 10> convergence tight
| 11> maxIter 1000
| 12> end
| 13> 
| 14> * xyz 1 1
| 15>   C   -5.68864025007199      0.74375697940424      4.02279963313618
| 16>   C   -6.14017478281601      1.48752803661525      2.89479801700060
| 17>   C   -6.03577510452864      0.96860095727281      1.61512919679120
| 18>   C   -5.47671551789388     -0.31067808542453      1.42174229638733
| 19>   C   -5.02516667533910     -1.06251571606448      2.52737726342718
| 20>   C   -5.13038656319973     -0.54172380422492      3.80827956130628
| 21>   C   -5.80219044545854      1.32185478537185      5.39342595030213
| 22>   H   -5.47568151075062      0.62058386935549      6.17291648473423
| 23>   H   -6.84190537608322      1.63110850063137      5.60405156790145
| 24>   H   -5.19467969317582      2.24286556186927      5.47547721675407
| 25>   H   -6.57338048436388      2.47867051326444      3.05213474531913
| 26>   H   -6.38467649074386      1.54541398407473      0.75588032905486
| 27>   H   -5.39272090817148     -0.72245752042804      0.41310965395308
| 28>   H   -4.59377490734198     -2.05350886881684      2.37011864130417
| 29>   H   -4.78267860356755     -1.12027465846136      4.66726950684610
| 30>   N   -10.72303025727538     -2.04355384202885    -23.95949870294162
| 31>   O   -10.31248685872961     -1.95063071645687    -22.88200324132554
| 32>   O   -10.56999081643787     -2.21775338079966    -25.09257128368711
| 33> **                         ****END OF INPUT****
================================================================================

                       *****************************
                       * Geometry Optimization Run *
                       *****************************

Geometry optimization settings:
Update method            Update   .... BFGS
Choice of coordinates    CoordSys .... Z-matrix Internals
Initial Hessian          InHess   .... Almoef's Model

Convergence Tolerances:
Energy Change            TolE     ....  1.0000e-06 Eh
Max. Gradient            TolMAXG  ....  1.0000e-04 Eh/bohr
RMS Gradient             TolRMSG  ....  3.0000e-05 Eh/bohr
Max. Displacement        TolMAXD  ....  1.0000e-03 bohr
RMS Displacement         TolRMSD  ....  6.0000e-04 bohr
Strict Convergence                ....  False
------------------------------------------------------------------------------
                        ORCA OPTIMIZATION COORDINATE SETUP
------------------------------------------------------------------------------

The optimization will be done in new redundant internal coordinates
Making redundant internal coordinates   ...  (new redundants) done
Evaluating the initial hessian          ...  (Is done on the fly) done
Evaluating the coordinates              ...  done
Calculating the B-matrix                .... done
Calculating the G-matrix                .... done
Diagonalizing the G-matrix              .... done
Small eigenvalue found = 1.893e-02
The first mode is                       ....   54
The number of degrees of freedom        ....   48

    -----------------------------------------------------------------
                    Redundant Internal Coordinates


    -----------------------------------------------------------------
         Definition                    Initial Value    d2E/dq (diagonal element)
    -----------------------------------------------------------------
      1. B(C   1,C   0)                  1.4246         0.000000   
      2. B(C   2,C   1)                  1.3848         0.000000   
      3. B(C   3,C   2)                  1.4094         0.000000   
      4. B(C   4,C   3)                  1.4112         0.000000   
      5. B(C   5,C   4)                  1.3867         0.000000   
      6. B(C   5,C   0)                  1.4178         0.000000   
      7. B(C   6,C   0)                  1.4919         0.000000   
      8. B(H   7,C   6)                  1.0982         0.000000   
      9. B(H   8,C   6)                  1.1050         0.000000   
     10. B(H   9,C   6)                  1.1064         0.000000   
     11. B(H  10,C   1)                  1.0931         0.000000   
     12. B(H  11,C   2)                  1.0921         0.000000   
     13. B(H  12,C   3)                  1.0927         0.000000   
     14. B(H  13,C   4)                  1.0922         0.000000   
     15. B(H  14,C   5)                  1.0925         0.000000   
     16. B(O  16,H  12)                 23.8406         0.000000   
     17. B(O  16,H  11)                 24.2157         0.000000   
     18. B(O  16,C   3)                 24.8344         0.000000   
     19. B(O  16,N  15)                  1.1568         0.000000   
     20. B(O  17,N  15)                  1.1566         0.000000   
     21. A(C   1,C   0,C   5)          118.5789         0.000000   
     22. A(C   1,C   0,C   6)          120.0674         0.000000   
     23. A(C   5,C   0,C   6)          121.3532         0.000000   
     24. A(C   0,C   1,H  10)          119.0161         0.000000   
     25. A(C   0,C   1,C   2)          120.8068         0.000000   
     26. A(C   2,C   1,H  10)          120.1770         0.000000   
     27. A(C   3,C   2,H  11)          119.8776         0.000000   
     28. A(C   1,C   2,C   3)          119.7894         0.000000   
     29. A(C   1,C   2,H  11)          120.3330         0.000000   
     30. A(H  12,C   3,O  16)           24.0384         0.000000   
     31. A(C   2,C   3,O  16)           96.7177         0.000000   
     32. A(C   4,C   3,H  12)          119.8561         0.000000   
     33. A(C   4,C   3,O  16)          142.5454         0.000000   
     34. A(C   2,C   3,C   4)          120.1970         0.000000   
     35. A(C   2,C   3,H  12)          119.9469         0.000000   
     36. A(C   5,C   4,H  13)          120.2465         0.000000   
     37. A(C   3,C   4,H  13)          119.7991         0.000000   
     38. A(C   3,C   4,C   5)          119.9544         0.000000   
     39. A(C   4,C   5,H  14)          120.2149         0.000000   
     40. A(C   0,C   5,C   4)          120.6734         0.000000   
     41. A(C   0,C   5,H  14)          119.1116         0.000000   
     42. A(H   8,C   6,H   9)          105.6373         0.000000   
     43. A(H   7,C   6,H   9)          108.4025         0.000000   
     44. A(C   0,C   6,H   9)          110.4210         0.000000   
     45. A(H   7,C   6,H   8)          108.8551         0.000000   
     46. A(C   0,C   6,H   8)          110.8048         0.000000   
     47. A(C   0,C   6,H   7)          112.4600         0.000000   
     48. A(C   2,H  11,O  16)          138.0354         0.000000   
     49. A(C   3,H  12,O  16)          154.8918         0.000000   
     50. A(O  16,N  15,O  17)          151.3630         0.000000   
     51. A(H  11,O  16,N  15)          168.0655         0.000000   
     52. A(C   3,O  16,N  15)          170.3864         0.000000   
     53. A(H  11,O  16,H  12)            5.8941         0.000000   
     54. A(H  12,O  16,N  15)          170.9351         0.000000   
     55. D(C   2,C   1,C   0,C   6)    179.6637         0.000000   
     56. D(H  10,C   1,C   0,C   5)    179.8940         0.000000   
     57. D(H  10,C   1,C   0,C   6)     -0.3762         0.000000   
     58. D(C   2,C   1,C   0,C   5)     -0.0661         0.000000   
     59. D(C   3,C   2,C   1,H  10)   -179.9543         0.000000   
     60. D(H  11,C   2,C   1,C   0)    179.9829         0.000000   
     61. D(C   3,C   2,C   1,C   0)      0.0053         0.000000   
     62. D(H  11,C   2,C   1,H  10)      0.0233         0.000000   
     63. D(O  16,C   3,C   2,H  11)     -6.5287         0.000000   
     64. D(H  12,C   3,C   2,H  11)      0.0474         0.000000   
     65. D(H  12,C   3,C   2,C   1)   -179.9749         0.000000   
     66. D(C   4,C   3,C   2,C   1)      0.0524         0.000000   
     67. D(C   4,C   3,C   2,H  11)   -179.9253         0.000000   
     68. D(O  16,C   3,C   2,C   1)    173.4490         0.000000   
     69. D(C   5,C   4,C   3,C   2)     -0.0481         0.000000   
     70. D(H  13,C   4,C   3,O  16)     10.7734         0.000000   
     71. D(H  13,C   4,C   3,H  12)     -0.0238         0.000000   
     72. D(H  13,C   4,C   3,C   2)    179.9489         0.000000   
     73. D(C   5,C   4,C   3,O  16)   -169.2236         0.000000   
     74. D(C   5,C   4,C   3,H  12)    179.9792         0.000000   
     75. D(H  14,C   5,C   4,H  13)     -0.0298         0.000000   
     76. D(C   0,C   5,C   4,H  13)    179.9887         0.000000   
     77. D(C   0,C   5,C   4,C   3)     -0.0143         0.000000   
     78. D(H  14,C   5,C   0,C   6)      0.3627         0.000000   
     79. D(C   4,C   5,C   0,C   6)   -179.6556         0.000000   
     80. D(H  14,C   5,C   4,C   3)    179.9672         0.000000   
     81. D(C   4,C   5,C   0,C   1)      0.0705         0.000000   
     82. D(H  14,C   5,C   0,C   1)   -179.9112         0.000000   
     83. D(H   8,C   6,C   0,C   1)     54.3622         0.000000   
     84. D(H   7,C   6,C   0,C   5)     -3.8314         0.000000   
     85. D(H   7,C   6,C   0,C   1)    176.4465         0.000000   
     86. D(H   9,C   6,C   0,C   5)    117.3952         0.000000   
     87. D(H   9,C   6,C   0,C   1)    -62.3270         0.000000   
     88. D(H   8,C   6,C   0,C   5)   -125.9157         0.000000   
     89. D(O  16,H  11,C   2,C   3)      9.9732         0.000000   
     90. D(O  16,H  11,C   2,C   1)   -170.0043         0.000000   
     91. D(O  16,H  12,C   3,C   4)    163.7595         0.000000   
     92. D(O  16,H  12,C   3,C   2)    -16.2133         0.000000   
     93. D(H  12,O  16,N  15,O  17)   -160.1457         0.000000   
     94. D(C   3,O  16,N  15,O  17)   -165.8094         0.000000   
     95. D(H  11,O  16,H  12,C   3)     14.0539         0.000000   
     96. D(N  15,O  16,H  12,C   3)    -61.9783         0.000000   
     97. D(H  12,O  16,H  11,C   2)     -8.8352         0.000000   
     98. D(N  15,O  16,H  11,C   2)    123.4879         0.000000   
     99. D(N  15,O  16,C   3,H  12)    123.6105         0.000000   
    100. D(H  11,O  16,N  15,O  17)    171.0448         0.000000   
    101. D(N  15,O  16,C   3,C   4)    100.1043         0.000000   
    102. D(N  15,O  16,C   3,C   2)    -70.4891         0.000000   
    -----------------------------------------------------------------

Number of atoms                         .... 18
Number of degrees of freedom            .... 102

         *************************************************************
         *                GEOMETRY OPTIMIZATION CYCLE   1            *
         *************************************************************
---------------------------------
CARTESIAN COORDINATES (ANGSTROEM)
---------------------------------
  C     -5.688640    0.743757    4.022800
  C     -6.140175    1.487528    2.894798
  C     -6.035775    0.968601    1.615129
  C     -5.476716   -0.310678    1.421742
  C     -5.025167   -1.062516    2.527377
  C     -5.130387   -0.541724    3.808280
  C     -5.802190    1.321855    5.393426
  H     -5.475682    0.620584    6.172916
  H     -6.841905    1.631109    5.604052
  H     -5.194680    2.242866    5.475477
  H     -6.573380    2.478671    3.052135
  H     -6.384676    1.545414    0.755880
  H     -5.392721   -0.722458    0.413110
  H     -4.593775   -2.053509    2.370119
  H     -4.782679   -1.120275    4.667270
  N    -10.723030   -2.043554  -23.959499
  O    -10.312487   -1.950631  -22.882003
  O    -10.569991   -2.217753  -25.092571

----------------------------
CARTESIAN COORDINATES (A.U.)
----------------------------
  NO LB      ZA    FRAG     MASS         X           Y           Z
   0 C     6.0000    0    12.011  -10.749972    1.405497    7.601990
   1 C     6.0000    0    12.011  -11.603249    2.811021    5.470375
   2 C     6.0000    0    12.011  -11.405962    1.830391    3.052152
   3 C     6.0000    0    12.011  -10.349492   -0.587096    2.686704
   4 C     6.0000    0    12.011   -9.496189   -2.007864    4.776051
   5 C     6.0000    0    12.011   -9.695026   -1.023710    7.196605
   6 C     6.0000    0    12.011  -10.964551    2.497944   10.192098
   7 H     1.0000    0     1.008  -10.347538    1.172734   11.665122
   8 H     1.0000    0     1.008  -12.929327    3.082348   10.590123
   9 H     1.0000    0     1.008   -9.816522    4.238402   10.347152
  10 H     1.0000    0     1.008  -12.421889    4.684008    5.767699
  11 H     1.0000    0     1.008  -12.065290    2.920409    1.428407
  12 H     1.0000    0     1.008  -10.190766   -1.365247    0.780664
  13 H     1.0000    0     1.008   -8.680976   -3.880569    4.478875
  14 H     1.0000    0     1.008   -9.037953   -2.117012    8.819861
  15 N     7.0000    0    14.007  -20.263591   -3.861757  -45.276891
  16 O     8.0000    0    15.999  -19.487776   -3.686158  -43.240720
  17 O     8.0000    0    15.999  -19.974388   -4.190947  -47.418088

--------------------------------
INTERNAL COORDINATES (ANGSTROEM)
--------------------------------
 C      0   0   0     0.000000000000     0.00000000     0.00000000
 C      1   0   0     1.424593438778     0.00000000     0.00000000
 C      2   1   0     1.384823777929   120.80682226     0.00000000
 C      3   2   1     1.409432858898   119.78943150     0.00000000
 C      4   3   2     1.411235225042   120.19700263     0.05244663
 C      5   4   3     1.386724968027   119.95436923   359.95191903
 C      1   2   3     1.491880431350   120.06735249   179.66366007
 H      7   1   2     1.098177797701   112.45997699   176.44650361
 H      7   1   2     1.104992374704   110.80476106    54.36215232
 H      7   1   2     1.106373614513   110.42103437   297.67304598
 H      2   1   3     1.093062411278   119.01613765   179.96015196
 H      3   2   1     1.092132804149   120.33298066   179.98294088
 H      4   3   2     1.092683487996   119.94687951   180.02511024
 H      5   4   3     1.092198040893   119.79913350   179.94888148
 H      6   5   4     1.092467684954   120.21490623   179.96716306
 N     13   4   3    24.983625264694   154.69295727   342.92350195
 O     16  13   4     1.156796031787     8.64691898   118.80272079
 O     16  13   4     1.156555239925   159.30403589   146.22675432

---------------------------
INTERNAL COORDINATES (A.U.)
---------------------------
 C      0   0   0     0.000000000000     0.00000000     0.00000000
 C      1   0   0     2.692091451472     0.00000000     0.00000000
 C      2   1   0     2.616937684028   120.80682226     0.00000000
 C      3   2   1     2.663442107466   119.78943150     0.00000000
 C      4   3   2     2.666848085873   120.19700263     0.05244663
 C      5   4   3     2.620530412643   119.95436923   359.95191903
 C      1   2   3     2.819245439808   120.06735249   179.66366007
 H      7   1   2     2.075255284008   112.45997699   176.44650361
 H      7   1   2     2.088132968263   110.80476106    54.36215232
 H      7   1   2     2.090743133226   110.42103437   297.67304598
 H      2   1   3     2.065588604600   119.01613765   179.96015196
 H      3   2   1     2.063831901712   120.33298066   179.98294088
 H      4   3   2     2.064872543369   119.94687951   180.02511024
 H      5   4   3     2.063955181292   119.79913350   179.94888148
 H      6   5   4     2.064464734721   120.21490623   179.96716306
 N     13   4   3    47.212209582788   154.69295727   342.92350195
 O     16  13   4     2.186027692885     8.64691898   118.80272079
 O     16  13   4     2.185572662209   159.30403589   146.22675432

---------------------
BASIS SET INFORMATION
---------------------
There are 4 groups of distinct atoms

 Group   1 Type C   : 7s4p1d contracted to 3s2p1d pattern {511/31/1}
 Group   2 Type H   : 4s1p contracted to 2s1p pattern {31/1}
 Group   3 Type N   : 7s4p1d contracted to 3s2p1d pattern {511/31/1}
 Group   4 Type O   : 7s4p1d contracted to 3s2p1d pattern {511/31/1}

Atom   0C    basis set group =>   1
Atom   1C    basis set group =>   1
Atom   2C    basis set group =>   1
Atom   3C    basis set group =>   1
Atom   4C    basis set group =>   1
Atom   5C    basis set group =>   1
Atom   6C    basis set group =>   1
Atom   7H    basis set group =>   2
Atom   8H    basis set group =>   2
Atom   9H    basis set group =>   2
Atom  10H    basis set group =>   2
Atom  11H    basis set group =>   2
Atom  12H    basis set group =>   2
Atom  13H    basis set group =>   2
Atom  14H    basis set group =>   2
Atom  15N    basis set group =>   3
Atom  16O    basis set group =>   4
Atom  17O    basis set group =>   4
---------------------------------
AUXILIARY/J BASIS SET INFORMATION
---------------------------------
There are 4 groups of distinct atoms

 Group   1 Type C   : 12s5p4d2f1g contracted to 6s4p3d1f1g pattern {711111/2111/211/2/1}
 Group   2 Type H   : 5s2p1d contracted to 3s1p1d pattern {311/2/1}
 Group   3 Type N   : 12s5p4d2f1g contracted to 6s4p3d1f1g pattern {711111/2111/211/2/1}
 Group   4 Type O   : 12s5p4d2f1g contracted to 6s4p3d1f1g pattern {711111/2111/211/2/1}

Atom   0C    basis set group =>   1
Atom   1C    basis set group =>   1
Atom   2C    basis set group =>   1
Atom   3C    basis set group =>   1
Atom   4C    basis set group =>   1
Atom   5C    basis set group =>   1
Atom   6C    basis set group =>   1
Atom   7H    basis set group =>   2
Atom   8H    basis set group =>   2
Atom   9H    basis set group =>   2
Atom  10H    basis set group =>   2
Atom  11H    basis set group =>   2
Atom  12H    basis set group =>   2
Atom  13H    basis set group =>   2
Atom  14H    basis set group =>   2
Atom  15N    basis set group =>   3
Atom  16O    basis set group =>   4
Atom  17O    basis set group =>   4
------------------------------------------------------------------------------
                           ORCA GTO INTEGRAL CALCULATION
                           -- RI-GTO INTEGRALS CHOSEN --
------------------------------------------------------------------------------
------------------------------------------------------------------------------
                   ___                                                        
                  /   \      - P O W E R E D   B Y -                         
                 /     \                                                     
                 |  |  |   _    _      __       _____    __    __             
                 |  |  |  | |  | |    /  \     |  _  \  |  |  /  |          
                  \  \/   | |  | |   /    \    | | | |  |  | /  /          
                 / \  \   | |__| |  /  /\  \   | |_| |  |  |/  /          
                |  |  |   |  __  | /  /__\  \  |    /   |      \           
                |  |  |   | |  | | |   __   |  |    \   |  |\   \          
                \     /   | |  | | |  |  |  |  | |\  \  |  | \   \       
                 \___/    |_|  |_| |__|  |__|  |_| \__\ |__|  \__/        
                                                                              
                      - O R C A' S   B I G   F R I E N D -                    
                                      &                                       
                       - I N T E G R A L  F E E D E R -                       
                                                                              
 v1 FN, 2020, v2 2021                                                         
------------------------------------------------------------------------------


Reading SHARK input file e_c_11.SHARKINP.tmp ... ok
----------------------
SHARK INTEGRAL PACKAGE
----------------------

Number of atoms                             ...     18
Number of basis functions                   ...    180
Number of shells                            ...     84
Maximum angular momentum                    ...      2
Integral batch strategy                     ... SHARK/LIBINT Hybrid
RI-J (if used) integral strategy            ... SPLIT-RIJ (Revised 2003 algorithm where possible)
Printlevel                                  ...      1
Contraction scheme used                     ... SEGMENTED contraction
Coulomb Range Separation                    ... NOT USED
Exchange Range Separation                   ... NOT USED
Finite Nucleus Model                        ... NOT USED
Auxiliary Coulomb fitting basis             ... AVAILABLE
   # of basis functions in Aux-J            ...    578
   # of shells in Aux-J                     ...    190
   Maximum angular momentum in Aux-J        ...      4
Auxiliary J/K fitting basis                 ... NOT available
Auxiliary Correlation fitting basis         ... NOT available
Auxiliary 'external' fitting basis          ... NOT available
Integral threshold                          ...     2.500000e-11
Primitive cut-off                           ...     2.500000e-12
Primitive pair pre-selection threshold      ...     2.500000e-12

Calculating pre-screening integrals         ... done (  0.1 sec) Dimension = 84
Organizing shell pair data                  ... done (  0.1 sec)
Shell pair information
Total number of shell pairs                 ...      3570
Shell pairs after pre-screening             ...      2301
Total number of primitive shell pairs       ...     13034
Primitive shell pairs kept                  ...      6360
          la=0 lb=0:    721 shell pairs
          la=1 lb=0:    837 shell pairs
          la=1 lb=1:    262 shell pairs
          la=2 lb=0:    279 shell pairs
          la=2 lb=1:    168 shell pairs
          la=2 lb=2:     34 shell pairs

Calculating one electron integrals          ... done (  0.0 sec)
Calculating RI/J V-Matrix + Cholesky decomp.... done (  0.1 sec)
Calculating Nuclear repulsion               ... done (  0.0 sec) ENN=    356.187175865595 Eh

SHARK setup successfully completed in   0.5 seconds

Maximum memory used throughout the entire GTOINT-calculation: 19.3 MB
-------------------------------------------------------------------------------
                                 ORCA SCF
-------------------------------------------------------------------------------

------------
SCF SETTINGS
------------
Hamiltonian:
 Density Functional     Method          .... DFT(GTOs)
 Exchange Functional    Exchange        .... B88
   X-Alpha parameter    XAlpha          ....  0.666667
   Becke's b parameter  XBeta           ....  0.004200
 Correlation Functional Correlation     .... LYP
 LDA part of GGA corr.  LDAOpt          .... VWN-5
 Gradients option       PostSCFGGA      .... off
 Hybrid DFT is turned on
   Fraction HF Exchange ScalHFX         ....  0.200000
   Scaling of DF-GGA-X  ScalDFX         ....  0.720000
   Scaling of DF-GGA-C  ScalDFC         ....  0.810000
   Scaling of DF-LDA-C  ScalLDAC        ....  1.000000
   Perturbative correction              ....  0.000000
   Density functional embedding theory  .... OFF
   NL short-range parameter             ....  4.800000
 RI-approximation to the Coulomb term is turned on
   Number of AuxJ basis functions       .... 578
   RIJ-COSX (HFX calculated with COS-X)).... on


General Settings:
 Integral files         IntName         .... e_c_11
 Hartree-Fock type      HFTyp           .... RHF
 Total Charge           Charge          ....    1
 Multiplicity           Mult            ....    1
 Number of Electrons    NEL             ....   72
 Basis Dimension        Dim             ....  180
 Nuclear Repulsion      ENuc            ....    356.1871758656 Eh

Convergence Acceleration:
 DIIS                   CNVDIIS         .... on
   Start iteration      DIISMaxIt       ....    12
   Startup error        DIISStart       ....  0.200000
   # of expansion vecs  DIISMaxEq       ....     5
   Bias factor          DIISBfac        ....   1.050
   Max. coefficient     DIISMaxC        ....  10.000
 Trust-Rad. Augm. Hess. CNVTRAH         .... auto
   Auto Start mean grad. ratio tolernc. ....  1.125000
   Auto Start start iteration           ....    20
   Auto Start num. interpolation iter.  ....    10
   Max. Number of Micro iterations      ....    16
   Max. Number of Macro iterations      .... Maxiter - #DIIS iter
   Number of Davidson start vectors     ....     2
   Converg. threshold I  (grad. norm)   ....   1.000e-05
   Converg. threshold II (energy diff.) ....   1.000e-08
   Grad. Scal. Fac. for Micro threshold ....   0.100
   Minimum threshold for Micro iter.    ....   0.010
   NR start threshold (gradient norm)   ....   0.001
   Initial trust radius                 ....   0.400
   Minimum AH scaling param. (alpha)    ....   1.000
   Maximum AH scaling param. (alpha)    .... 1000.000
   Orbital update algorithm             .... Taylor
   White noise on init. David. guess    .... on
   Maximum white noise                  ....   0.010
   Quad. conv. algorithm                .... NR
 SOSCF                  CNVSOSCF        .... on
   Start iteration      SOSCFMaxIt      ....   150
   Startup grad/error   SOSCFStart      ....  0.003300
 Level Shifting         CNVShift        .... on
   Level shift para.    LevelShift      ....    0.2500
   Turn off err/grad.   ShiftErr        ....    0.0010
 Zerner damping         CNVZerner       .... off
 Static damping         CNVDamp         .... on
   Fraction old density DampFac         ....    0.7000
   Max. Damping (<1)    DampMax         ....    0.9800
   Min. Damping (>=0)   DampMin         ....    0.0000
   Turn off err/grad.   DampErr         ....    0.1000
 Fernandez-Rico         CNVRico         .... off

SCF Procedure:
 Maximum # iterations   MaxIter         ....  1000
 SCF integral mode      SCFMode         .... Direct
   Integral package                     .... SHARK and LIBINT hybrid scheme
 Reset frequency        DirectResetFreq ....    20
 Integral Threshold     Thresh          ....  2.500e-11 Eh
 Primitive CutOff       TCut            ....  2.500e-12 Eh

Convergence Tolerance:
 Convergence Check Mode ConvCheckMode   .... Total+1el-Energy
 Convergence forced     ConvForced      .... 0
 Energy Change          TolE            ....  1.000e-08 Eh
 1-El. energy change                    ....  1.000e-05 Eh
 Orbital Gradient       TolG            ....  1.000e-05
 Orbital Rotation angle TolX            ....  1.000e-05
 DIIS Error             TolErr          ....  5.000e-07


Diagonalization of the overlap matrix:
Smallest eigenvalue                        ... 3.154e-04
Time for diagonalization                   ...    0.012 sec
Threshold for overlap eigenvalues          ... 1.000e-08
Number of eigenvalues below threshold      ... 0
Time for construction of square roots      ...    0.008 sec
Total time needed                          ...    0.021 sec

Time for model grid setup =    1.111 sec

------------------------------
INITIAL GUESS: MODEL POTENTIAL
------------------------------
Loading Hartree-Fock densities                     ... done
Calculating cut-offs                               ... done
Initializing the effective Hamiltonian             ... done
Setting up the integral package (SHARK)            ... done
Starting the Coulomb interaction                   ... done (   0.7 sec)
Reading the grid                                   ... done
Mapping shells                                     ... done
Starting the XC term evaluation                    ... done (   0.8 sec)
  promolecular density results
     # of electrons  =     72.993498998
     EX              =    -61.286184863
     EC              =     -2.469390309
     EX+EC           =    -63.755575172
Transforming the Hamiltonian                       ... done (   0.0 sec)
Diagonalizing the Hamiltonian                      ... done (   0.0 sec)
Back transforming the eigenvectors                 ... done (   0.0 sec)
Now organizing SCF variables                       ... done
                      ------------------
                      INITIAL GUESS DONE (   2.6 sec)
                      ------------------
-------------------
DFT GRID GENERATION
-------------------

General Integration Accuracy     IntAcc      ... 4.388
Radial Grid Type                 RadialGrid  ... OptM3 with GC (2021)
Angular Grid (max. ang.)         AngularGrid ... 4 (Lebedev-302)
Angular grid pruning method      GridPruning ... 4 (adaptive)
Weight generation scheme         WeightScheme... Becke
Basis function cutoff            BFCut       ... 1.0000e-11
Integration weight cutoff        WCut        ... 1.0000e-14
Angular grids for H and He will be reduced by one unit
Partially contracted basis set               ... off
Rotationally invariant grid construction     ... off

Total number of grid points                  ...    86305
Total number of batches                      ...     1356
Average number of points per batch           ...       63
Average number of grid points per atom       ...     4795
Time for grid setup =    2.325 sec

--------------------
COSX GRID GENERATION
--------------------

GRIDX 1
-------
General Integration Accuracy     IntAcc      ... 3.816
Radial Grid Type                 RadialGrid  ... OptM3 with GC (2021)
Angular Grid (max. ang.)         AngularGrid ... 1 (Lebedev-50)
Angular grid pruning method      GridPruning ... 4 (adaptive)
Weight generation scheme         WeightScheme... Becke
Basis function cutoff            BFCut       ... 1.0000e-11
Integration weight cutoff        WCut        ... 1.0000e-14
Angular grids for H and He will be reduced by one unit
Partially contracted basis set               ... on
Rotationally invariant grid construction     ... off

Total number of grid points                  ...    11047
Total number of batches                      ...      179
Average number of points per batch           ...       61
Average number of grid points per atom       ...      614
UseSFitting                                  ... on

GRIDX 2
-------
General Integration Accuracy     IntAcc      ... 4.020
Radial Grid Type                 RadialGrid  ... OptM3 with GC (2021)
Angular Grid (max. ang.)         AngularGrid ... 2 (Lebedev-110)
Angular grid pruning method      GridPruning ... 4 (adaptive)
Weight generation scheme         WeightScheme... Becke
Basis function cutoff            BFCut       ... 1.0000e-11
Integration weight cutoff        WCut        ... 1.0000e-14
Angular grids for H and He will be reduced by one unit
Partially contracted basis set               ... on
Rotationally invariant grid construction     ... off

Total number of grid points                  ...    24415
Total number of batches                      ...      390
Average number of points per batch           ...       62
Average number of grid points per atom       ...     1356
UseSFitting                                  ... on

GRIDX 3
-------
General Integration Accuracy     IntAcc      ... 4.338
Radial Grid Type                 RadialGrid  ... OptM3 with GC (2021)
Angular Grid (max. ang.)         AngularGrid ... 3 (Lebedev-194)
Angular grid pruning method      GridPruning ... 4 (adaptive)
Weight generation scheme         WeightScheme... Becke
Basis function cutoff            BFCut       ... 1.0000e-11
Integration weight cutoff        WCut        ... 1.0000e-14
Angular grids for H and He will be reduced by one unit
Partially contracted basis set               ... on
Rotationally invariant grid construction     ... off

Total number of grid points                  ...    53760
Total number of batches                      ...      850
Average number of points per batch           ...       63
Average number of grid points per atom       ...     2987
UseSFitting                                  ... on

Time for X-Grid setup             =    3.169 sec

--------------
SCF ITERATIONS
--------------
ITER       Energy         Delta-E        Max-DP      RMS-DP      [F,P]     Damp
               ***  Starting incremental Fock matrix formation  ***
  0   -475.3589120862   0.000000000000 0.32113343  0.00530135  0.2161700 0.7000
  1   -475.3635326880  -0.004620601754 0.07252204  0.00189226  0.1231357 0.7000
                               ***Turning on DIIS***
  2   -475.5432970039  -0.179764315938 0.16590734  0.00398759  0.0307166 0.0000
  3   -475.5822976405  -0.039000636515 0.00985278  0.00022940  0.1183946 0.7000
  4   -475.5923998891  -0.010102248683 0.00907993  0.00023318  0.1057964 0.7000
  5   -475.6014334619  -0.009033572771 0.02968386  0.00078949  0.0941420 0.0000
  6   -475.6265451807  -0.025111718816 0.04066670  0.00106981  0.0582966 0.0000
  7   -475.6405392096  -0.013994028847 0.51891736  0.01119885  0.0176460 0.0000
  8   -474.8036855505   0.836853659110 0.00137532  0.00004197  0.2221963 0.7000
  9   -474.8025111867   0.001174363717 0.00121816  0.00004197  0.2231447 0.7000
 10   -474.8021374454   0.000373741384 0.00216227  0.00004411  0.2239867 0.7000
 11   -474.8040666946  -0.001929249226 0.00375571  0.00006737  0.2242337 0.7000
 12   -474.8091886820  -0.005121987461 0.29184492  0.00792522  0.2233543 0.7000
 13   -474.3079342741   0.501254407899 0.11415415  0.00305389  0.1054735 0.7000
 14   -474.6882971411  -0.380362866944 0.07807228  0.00208776  0.1027313 0.7000
 15   -474.9600832520  -0.271786110920 0.05339226  0.00146638  0.1098649 0.7000
 16   -475.1554322273  -0.195348975314 0.03692357  0.00103955  0.1034332 0.7000
 17   -475.2949126145  -0.139480387200 0.48550803  0.00977600  0.0943712 0.0000
 18   -474.7315466223   0.563365992193 0.03899707  0.00055350  0.2564315 0.7000
 19   -474.7776562033  -0.046109580962 0.04039167  0.00055367  0.2325657 0.7000
               *** Restarting incremental Fock matrix formation ***
                                   *** Resetting DIIS ***

 WARNING: the maximum gradient error descreased on average only by a factor   1.0
          during the last 20 iterations

                      *** Initiating the TRAH-SCF procedure ***


TRAH GRIDX
----------

General Integration Accuracy     IntAcc      ... 3.067
Radial Grid Type                 RadialGrid  ... OptM3 with GC (2021)
Angular Grid (max. ang.)         AngularGrid ... 1 (Lebedev-50)
Angular grid pruning method      GridPruning ... 4 (adaptive)
Weight generation scheme         WeightScheme... Becke
Basis function cutoff            BFCut       ... 1.0000e-11
Integration weight cutoff        WCut        ... 1.0000e-14
Angular grids for H and He will be reduced by one unit
Partially contracted basis set               ... on
Rotationally invariant grid construction     ... off

Total number of grid points                  ...     5828
Total number of batches                      ...      102
Average number of points per batch           ...       57
Average number of grid points per atom       ...      324


TRAH GRID
---------

General Integration Accuracy     IntAcc      ... 3.467
Radial Grid Type                 RadialGrid  ... OptM3 with GC (2021)
Angular Grid (max. ang.)         AngularGrid ... 1 (Lebedev-50)
Angular grid pruning method      GridPruning ... 4 (adaptive)
Weight generation scheme         WeightScheme... Becke
Basis function cutoff            BFCut       ... 1.0000e-11
Integration weight cutoff        WCut        ... 1.0000e-14
Angular grids for H and He will be reduced by one unit
Partially contracted basis set               ... off
Rotationally invariant grid construction     ... off

Total number of grid points                  ...    12745
Total number of batches                      ...      208
Average number of points per batch           ...       61
Average number of grid points per atom       ...      708

 --------------------------------------------------------------------------------------------
   Iter.        energy            ||Error||_2        Shift      TRadius  Mac/Mic        Rej.
 --------------------------------------------------------------------------------------------
WARNING: 157 diagonal Hessian elements are negative!
    0       -474.911581602447     1.731783e+00                     0.400 (TRAH MAcro)   No
WARNING : negative HOMO - LUMO gap : -1.050878
    0     dE    -1.646962e-01     9.940197e-01    -6.8140e-01      0.178 (TRAH MIcro)
    0     dE    -2.442928e-01     3.448337e+00    -8.0913e-01      0.390 (TRAH MIcro)
    0     dE    -1.549143e-01     3.478650e-01    -5.2722e+00      0.131 (TRAH MIcro)
    0     dE    -1.568349e-01     2.528195e-02    -5.3297e+00      0.131 (TRAH MIcro)
    0     dE    -1.568199e-01     2.839390e-03    -5.3305e+00      0.131 (TRAH MIcro)
WARNING: 102 diagonal Hessian elements are negative!
    1       -475.067809698721     6.869737e-01                     0.480 (TRAH MAcro)   No
WARNING : negative HOMO - LUMO gap : -0.889393
    1     dE    -3.076352e-02     3.396880e-01    -6.1027e-02      0.091 (TRAH MIcro)
    1     dE    -1.616241e-01     3.521555e+00    -1.0325e+00      0.478 (TRAH MIcro)
    1     dE    -4.321433e-01     2.052710e-01    -3.5534e+00      0.480 (TRAH MIcro)
    1     dE    -4.342782e-01     3.345306e-02    -3.5732e+00      0.480 (TRAH MIcro)
    1     dE    -4.343348e-01     1.281843e-02    -3.5734e+00      0.480 (TRAH MIcro)
    1     dE    -4.343431e-01     3.881387e-03    -3.5733e+00      0.480 (TRAH MIcro)
WARNING: 18 diagonal Hessian elements are negative!
    2       -475.382971977245     9.252960e-01                     0.480 (TRAH MAcro)   No
WARNING : negative HOMO - LUMO gap : -0.312388
    2     dE    -3.779704e-01     1.707867e+00    -1.3584e+00      0.480 (TRAH MIcro)
    2     dE    -4.214296e-01     4.022286e-01    -1.7703e+00      0.480 (TRAH MIcro)
    2     dE    -4.253667e-01     8.954711e-02    -1.8186e+00      0.480 (TRAH MIcro)
    2     dE    -4.256490e-01     2.098791e-02    -1.8168e+00      0.480 (TRAH MIcro)
    2     dE    -4.256665e-01     3.458965e-03    -1.8165e+00      0.480 (TRAH MIcro)
    3       -475.684080620873     3.431342e-01                     0.480 (TRAH MAcro)   No
    3     dE    -1.210521e-02     4.548379e-01    -2.4070e-02      0.076 (TRAH MIcro)
    3     dE    -1.663873e-02     2.018702e-01    -3.2814e-02      0.119 (TRAH MIcro)
    3     dE    -1.818259e-02     9.403830e-02    -3.5767e-02      0.129 (TRAH MIcro)
    3     dE    -1.851748e-02     2.278273e-02    -3.6402e-02      0.132 (TRAH MIcro)
    3     dE    -1.854996e-02     4.489974e-03    -3.6463e-02      0.132 (TRAH MIcro)
    4       -475.703008564260     2.338885e-02                     0.576 (TRAH MAcro)   No
WARNING : small    HOMO - LUMO gap : 0.009880
    4     dE    -7.117228e-05     3.446915e-02    -1.4234e-04      0.006 (TRAH MIcro)
    4     dE    -1.113828e-04     1.492971e-02    -2.2274e-04      0.011 (TRAH MIcro)
    4     dE    -1.260127e-04     6.909975e-03    -2.5199e-04      0.012 (TRAH MIcro)
    4     dE    -1.287315e-04     2.799898e-03    -2.5742e-04      0.013 (TRAH MIcro)
    4     dE    -1.292321e-04     1.298647e-03    -2.5842e-04      0.013 (TRAH MIcro)
    5       -475.703139583904     1.412899e-03                     0.691 (TRAH MAcro)   No
WARNING : small    HOMO - LUMO gap : 0.003996
    5     dE    -4.962748e-08     1.586754e-03    -9.9256e-08      0.000 (TRAH MIcro)
    5     dE    -8.013830e-08     1.078431e-03    -1.6028e-07      0.000 (TRAH MIcro)
    5     dE    -1.540496e-07     5.050137e-04    -3.0810e-07      0.001 (TRAH MIcro)
    5     dE    -1.760885e-07     2.161977e-04    -3.5218e-07      0.001 (TRAH MIcro)
    5     dE    -1.795650e-07     1.359719e-04    -3.5913e-07      0.001 (TRAH MIcro)
    6       -475.703139765149     1.363131e-04                           (NR   MAcro)
WARNING : small    HOMO - LUMO gap : 0.003857
    6     dE    -4.244403e-10     9.803702e-05                           (NR   MIcro)
    6     dE    -8.954841e-10     7.637542e-05                           (NR   MIcro)
    6     dE    -1.498883e-09     4.138992e-05                           (NR   MIcro)
    6     dE    -1.636360e-09     2.187876e-05                           (NR   MIcro)
    6     dE    -1.667864e-09     9.784195e-06                           (NR   MIcro)
    6     dE    -1.672180e-09     3.933482e-06                           (NR   MIcro)
    6     dE    -1.672785e-09     1.147288e-06                           (NR   MIcro)
    6     dE    -1.672865e-09     2.814683e-07                           (NR   MIcro)
    7       -475.703139766522     3.309643e-07                           (NR   MAcro)
WARNING : small    HOMO - LUMO gap : 0.003856

               *****************************************************
               *                     SUCCESS                       *
               *           SCF CONVERGED AFTER  67 CYCLES          *
               *****************************************************

Old exchange energy                            =    -12.279471304 Eh
New exchange energy                            =    -12.279508526 Eh
Exchange energy change after final integration =     -0.000037222 Eh
Total energy after final integration           =   -475.703176988 Eh
Final COS-X integration done in                =    17.716 sec

----------------
TOTAL SCF ENERGY
----------------

Total Energy       :         -475.70317699 Eh          -12944.54153 eV

Components:
Nuclear Repulsion  :          356.18717587 Eh            9692.34580 eV
Electronic Energy  :         -831.89035285 Eh          -22636.88734 eV
One Electron Energy:        -1339.00580853 Eh          -36436.20043 eV
Two Electron Energy:          507.11545568 Eh           13799.31309 eV
Max COSX asymmetry :            0.00000258 Eh               0.00007 eV

Virial components:
Potential Energy   :         -947.16953406 Eh          -25773.79334 eV
Kinetic Energy     :          471.46635707 Eh           12829.25180 eV
Virial Ratio       :            2.00898647


DFT components:
N(Alpha)           :       36.000000291122 electrons
N(Beta)            :       36.000000291122 electrons
N(Total)           :       72.000000582243 electrons
E(X)               :      -49.003157393243 Eh       
E(C)               :       -2.881510367744 Eh       
E(XC)              :      -51.884667760987 Eh       
DFET-embed. en.    :        0.000000000000 Eh       

---------------
SCF CONVERGENCE
---------------

  Last Energy change         ...   -1.3735e-09  Tolerance :   1.0000e-08
  Last Orbital Gradient      ...    3.3096e-07  Tolerance :   1.0000e-05
  Last Orbital Rotation      ...    1.4887e-04

             **** THE GBW FILE WAS UPDATED (e_c_11.gbw) ****
             **** DENSITY e_c_11.scfp WAS UPDATED ****
             **** ENERGY FILE WAS UPDATED (e_c_11.en.tmp) ****
             **** THE GBW FILE WAS UPDATED (e_c_11.gbw) ****
             **** DENSITY e_c_11.scfp WAS UPDATED ****
----------------
ORBITAL ENERGIES
----------------

  NO   OCC          E(Eh)            E(eV) 
   0   2.0000     -19.467949      -529.7498 
   1   2.0000     -19.467882      -529.7480 
   2   2.0000     -14.790846      -402.4794 
   3   2.0000     -10.323824      -280.9255 
   4   2.0000     -10.313452      -280.6433 
   5   2.0000     -10.301301      -280.3126 
   6   2.0000     -10.301081      -280.3067 
   7   2.0000     -10.299403      -280.2610 
   8   2.0000     -10.298796      -280.2445 
   9   2.0000     -10.284345      -279.8513 
  10   2.0000      -1.499280       -40.7975 
  11   2.0000      -1.376971       -37.4693 
  12   2.0000      -0.960228       -26.1291 
  13   2.0000      -0.873323       -23.7643 
  14   2.0000      -0.847887       -23.0722 
  15   2.0000      -0.834284       -22.7020 
  16   2.0000      -0.788604       -21.4590 
  17   2.0000      -0.784079       -21.3359 
  18   2.0000      -0.781307       -21.2604 
  19   2.0000      -0.763358       -20.7720 
  20   2.0000      -0.707040       -19.2395 
  21   2.0000      -0.685777       -18.6609 
  22   2.0000      -0.614629       -16.7249 
  23   2.0000      -0.584968       -15.9178 
  24   2.0000      -0.580462       -15.7952 
  25   2.0000      -0.571480       -15.5507 
  26   2.0000      -0.554170       -15.0797 
  27   2.0000      -0.528789       -14.3891 
  28   2.0000      -0.518894       -14.1198 
  29   2.0000      -0.515728       -14.0337 
  30   2.0000      -0.484428       -13.1820 
  31   2.0000      -0.460397       -12.5280 
  32   2.0000      -0.454683       -12.3725 
  33   2.0000      -0.446038       -12.1373 
  34   2.0000      -0.365326        -9.9410 
  35   2.0000      -0.342104        -9.3091 
  36   0.0000      -0.338248        -9.2042 
  37   0.0000      -0.261721        -7.1218 
  38   0.0000      -0.121559        -3.3078 
  39   0.0000      -0.111898        -3.0449 
  40   0.0000      -0.025332        -0.6893 
  41   0.0000      -0.020838        -0.5670 
  42   0.0000      -0.003569        -0.0971 
  43   0.0000       0.008002         0.2178 
  44   0.0000       0.022940         0.6242 
  45   0.0000       0.033165         0.9025 
  46   0.0000       0.047490         1.2923 
  47   0.0000       0.062637         1.7044 
  48   0.0000       0.075738         2.0609 
  49   0.0000       0.078388         2.1330 
  50   0.0000       0.129735         3.5303 
  51   0.0000       0.184691         5.0257 
  52   0.0000       0.194266         5.2862 
  53   0.0000       0.195805         5.3281 
  54   0.0000       0.220468         5.9992 
  55   0.0000       0.256871         6.9898 
  56   0.0000       0.291765         7.9393 
  57   0.0000       0.309372         8.4185 
  58   0.0000       0.316097         8.6014 
  59   0.0000       0.319065         8.6822 
  60   0.0000       0.333885         9.0855 
  61   0.0000       0.343585         9.3494 
  62   0.0000       0.346166         9.4196 
  63   0.0000       0.352511         9.5923 
  64   0.0000       0.378958        10.3120 
  65   0.0000       0.386819        10.5259 
  66   0.0000       0.396276        10.7832 
  67   0.0000       0.434143        11.8136 
  68   0.0000       0.437696        11.9103 
  69   0.0000       0.463989        12.6258 
  70   0.0000       0.469741        12.7823 
  71   0.0000       0.472217        12.8497 
  72   0.0000       0.494560        13.4577 
  73   0.0000       0.496736        13.5169 
  74   0.0000       0.509218        13.8565 
  75   0.0000       0.532437        14.4884 
  76   0.0000       0.535290        14.5660 
  77   0.0000       0.539867        14.6905 
  78   0.0000       0.550743        14.9865 
  79   0.0000       0.572286        15.5727 
  80   0.0000       0.576407        15.6848 
  81   0.0000       0.580771        15.8036 
  82   0.0000       0.590868        16.0783 
  83   0.0000       0.600846        16.3498 
  84   0.0000       0.626430        17.0460 
  85   0.0000       0.628471        17.1016 
  86   0.0000       0.635753        17.2997 
  87   0.0000       0.646048        17.5799 
  88   0.0000       0.661186        17.9918 
  89   0.0000       0.683573        18.6010 
  90   0.0000       0.710682        19.3386 
  91   0.0000       0.712278        19.3821 
  92   0.0000       0.725821        19.7506 
  93   0.0000       0.740717        20.1559 
  94   0.0000       0.808678        22.0052 
  95   0.0000       0.809381        22.0244 
  96   0.0000       0.810266        22.0485 
  97   0.0000       0.827945        22.5295 
  98   0.0000       0.861537        23.4436 
  99   0.0000       0.949241        25.8302 
 100   0.0000       0.984850        26.7991 
 101   0.0000       1.025650        27.9093 
 102   0.0000       1.105369        30.0786 
 103   0.0000       1.136887        30.9363 
 104   0.0000       1.140593        31.0371 
 105   0.0000       1.142903        31.1000 
 106   0.0000       1.168414        31.7942 
 107   0.0000       1.173309        31.9274 
 108   0.0000       1.184533        32.2328 
 109   0.0000       1.187709        32.3192 
 110   0.0000       1.199952        32.6523 
 111   0.0000       1.367336        37.2071 
 112   0.0000       1.406476        38.2722 
 113   0.0000       1.421617        38.6842 
 114   0.0000       1.446118        39.3509 
 115   0.0000       1.533721        41.7347 
 116   0.0000       1.544021        42.0150 
 117   0.0000       1.574564        42.8461 
 118   0.0000       1.580402        43.0049 
 119   0.0000       1.616296        43.9816 
 120   0.0000       1.625514        44.2325 
 121   0.0000       1.639463        44.6121 
 122   0.0000       1.641732        44.6738 
 123   0.0000       1.661299        45.2062 
 124   0.0000       1.666134        45.3378 
 125   0.0000       1.668743        45.4088 
 126   0.0000       1.671718        45.4897 
 127   0.0000       1.677567        45.6489 
 128   0.0000       1.698600        46.2213 
 129   0.0000       1.706931        46.4479 
 130   0.0000       1.723840        46.9081 
 131   0.0000       1.763593        47.9898 
 132   0.0000       1.807533        49.1855 
 133   0.0000       1.837303        49.9956 
 134   0.0000       1.841628        50.1133 
 135   0.0000       1.875473        51.0342 
 136   0.0000       1.878985        51.1298 
 137   0.0000       1.920407        52.2569 
 138   0.0000       1.936716        52.7007 
 139   0.0000       1.942920        52.8695 
 140   0.0000       2.006240        54.5926 
 141   0.0000       2.027106        55.1604 
 142   0.0000       2.033858        55.3441 
 143   0.0000       2.060385        56.0659 
 144   0.0000       2.128187        57.9109 
 145   0.0000       2.173985        59.1571 
 146   0.0000       2.179801        59.3154 
 147   0.0000       2.200538        59.8797 
 148   0.0000       2.212524        60.2058 
 149   0.0000       2.245520        61.1037 
 150   0.0000       2.287627        62.2495 
 151   0.0000       2.327654        63.3387 
 152   0.0000       2.328549        63.3630 
 153   0.0000       2.342624        63.7460 
 154   0.0000       2.363995        64.3276 
 155   0.0000       2.377062        64.6831 
 156   0.0000       2.408876        65.5489 
 157   0.0000       2.478832        67.4525 
 158   0.0000       2.485866        67.6438 
 159   0.0000       2.497822        67.9692 
 160   0.0000       2.500078        68.0306 
 161   0.0000       2.531134        68.8757 
 162   0.0000       2.615903        71.1823 
 163   0.0000       2.619082        71.2689 
 164   0.0000       2.629941        71.5643 
 165   0.0000       2.672075        72.7109 
 166   0.0000       2.733209        74.3744 
 167   0.0000       2.761081        75.1328 
 168   0.0000       2.777358        75.5757 
 169   0.0000       2.828884        76.9779 
 170   0.0000       2.858500        77.7837 
 171   0.0000       2.945060        80.1392 
 172   0.0000       2.985113        81.2291 
 173   0.0000       3.018837        82.1467 
 174   0.0000       3.137006        85.3623 
 175   0.0000       3.180629        86.5493 
 176   0.0000       3.310328        90.0786 
 177   0.0000       3.398309        92.4727 
 178   0.0000       3.496841        95.1539 
 179   0.0000       3.695425       100.5576 

                    ********************************
                    * MULLIKEN POPULATION ANALYSIS *
                    ********************************

-----------------------
MULLIKEN ATOMIC CHARGES
-----------------------
   0 C :   -0.040646
   1 C :    0.023773
   2 C :    0.037255
   3 C :    0.054682
   4 C :    0.040782
   5 C :    0.021590
   6 C :    0.067636
   7 H :    0.040264
   8 H :    0.062189
   9 H :    0.066590
  10 H :    0.012314
  11 H :    0.024651
  12 H :    0.033533
  13 H :    0.025751
  14 H :    0.012480
  15 N :    0.423128
  16 O :    0.046079
  17 O :    0.047949
Sum of atomic charges:    1.0000000

--------------------------------
MULLIKEN REDUCED ORBITAL CHARGES
--------------------------------
  0 C s       :     3.111651  s :     3.111651
      pz      :     1.026271  p :     2.885124
      px      :     0.884815
      py      :     0.974038
      dz2     :     0.011287  d :     0.043871
      dxz     :     0.007500
      dyz     :     0.012837
      dx2y2   :     0.006126
      dxy     :     0.006120
  1 C s       :     3.217773  s :     3.217773
      pz      :     0.935153  p :     2.725033
      px      :     0.929202
      py      :     0.860677
      dz2     :     0.010174  d :     0.033421
      dxz     :     0.006443
      dyz     :     0.010045
      dx2y2   :     0.003278
      dxy     :     0.003482
  2 C s       :     3.168340  s :     3.168340
      pz      :     0.900028  p :     2.760001
      px      :     0.938876
      py      :     0.921098
      dz2     :     0.008856  d :     0.034404
      dxz     :     0.005526
      dyz     :     0.010949
      dx2y2   :     0.004438
      dxy     :     0.004635
  3 C s       :     3.185561  s :     3.185561
      pz      :     0.896042  p :     2.725019
      px      :     0.890032
      py      :     0.938944
      dz2     :     0.009004  d :     0.034739
      dxz     :     0.004290
      dyz     :     0.010393
      dx2y2   :     0.005597
      dxy     :     0.005455
  4 C s       :     3.172731  s :     3.172731
      pz      :     0.952625  p :     2.752081
      px      :     0.924545
      py      :     0.874910
      dz2     :     0.010495  d :     0.034405
      dxz     :     0.006645
      dyz     :     0.010208
      dx2y2   :     0.003439
      dxy     :     0.003618
  5 C s       :     3.210327  s :     3.210327
      pz      :     0.861297  p :     2.734583
      px      :     0.945517
      py      :     0.927769
      dz2     :     0.008856  d :     0.033499
      dxz     :     0.005336
      dyz     :     0.010627
      dx2y2   :     0.004242
      dxy     :     0.004438
  6 C s       :     2.954799  s :     2.954799
      pz      :     0.934452  p :     2.950527
      px      :     1.013007
      py      :     1.003068
      dz2     :     0.007713  d :     0.027038
      dxz     :     0.003221
      dyz     :     0.006970
      dx2y2   :     0.003929
      dxy     :     0.005205
  7 H s       :     0.936584  s :     0.936584
      pz      :     0.009308  p :     0.023152
      px      :     0.005514
      py      :     0.008330
  8 H s       :     0.913810  s :     0.913810
      pz      :     0.004711  p :     0.024001
      px      :     0.013543
      py      :     0.005747
  9 H s       :     0.909268  s :     0.909268
      pz      :     0.004386  p :     0.024143
      px      :     0.008232
      py      :     0.011525
 10 H s       :     0.964806  s :     0.964806
      pz      :     0.003391  p :     0.022880
      px      :     0.006024
      py      :     0.013466
 11 H s       :     0.952443  s :     0.952443
      pz      :     0.010830  p :     0.022905
      px      :     0.005289
      py      :     0.006786
 12 H s       :     0.943754  s :     0.943754
      pz      :     0.013797  p :     0.022713
      px      :     0.003873
      py      :     0.005043
 13 H s       :     0.951358  s :     0.951358
      pz      :     0.003432  p :     0.022891
      px      :     0.005927
      py      :     0.013532
 14 H s       :     0.964623  s :     0.964623
      pz      :     0.010703  p :     0.022897
      px      :     0.005360
      py      :     0.006834
 15 N s       :     3.288241  s :     3.288241
      pz      :     0.925670  p :     3.178770
      px      :     1.198029
      py      :     1.055072
      dz2     :     0.026115  d :     0.109860
      dxz     :     0.039034
      dyz     :     0.038697
      dx2y2   :     0.003024
      dxy     :     0.002990
 16 O s       :     3.851534  s :     3.851534
      pz      :     1.204977  p :     4.071610
      px      :     1.421343
      py      :     1.445290
      dz2     :     0.011595  d :     0.030778
      dxz     :     0.008846
      dyz     :     0.008083
      dx2y2   :     0.001108
      dxy     :     0.001146
 17 O s       :     3.851700  s :     3.851700
      pz      :     1.141182  p :     4.069528
      px      :     1.495376
      py      :     1.432970
      dz2     :     0.012520  d :     0.030823
      dxz     :     0.008569
      dyz     :     0.009061
      dx2y2   :     0.000344
      dxy     :     0.000329


                     *******************************
                     * LOEWDIN POPULATION ANALYSIS *
                     *******************************

----------------------
LOEWDIN ATOMIC CHARGES
----------------------
   0 C :    0.052173
   1 C :    0.011751
   2 C :    0.001056
   3 C :    0.057520
   4 C :    0.010052
   5 C :    0.001078
   6 C :   -0.035253
   7 H :    0.041734
   8 H :    0.058533
   9 H :    0.061843
  10 H :    0.042249
  11 H :    0.045377
  12 H :    0.046493
  13 H :    0.045992
  14 H :    0.042245
  15 N :    0.329873
  16 O :    0.092765
  17 O :    0.094518

-------------------------------
LOEWDIN REDUCED ORBITAL CHARGES
-------------------------------
  0 C s       :     2.873991  s :     2.873991
      pz      :     1.056932  p :     2.968504
      px      :     0.874723
      py      :     1.036849
      dz2     :     0.028643  d :     0.105332
      dxz     :     0.015597
      dyz     :     0.032955
      dx2y2   :     0.013859
      dxy     :     0.014278
  1 C s       :     2.868573  s :     2.868573
      pz      :     1.056033  p :     3.032056
      px      :     0.950992
      py      :     1.025031
      dz2     :     0.029699  d :     0.087619
      dxz     :     0.015105
      dyz     :     0.028093
      dx2y2   :     0.007021
      dxy     :     0.007701
  2 C s       :     2.864783  s :     2.864783
      pz      :     1.058360  p :     3.044844
      px      :     0.953939
      py      :     1.032545
      dz2     :     0.024948  d :     0.089317
      dxz     :     0.012387
      dyz     :     0.029984
      dx2y2   :     0.010649
      dxy     :     0.011350
  3 C s       :     2.877727  s :     2.877727
      pz      :     1.052517  p :     2.977237
      px      :     0.893968
      py      :     1.030752
      dz2     :     0.023739  d :     0.087515
      dxz     :     0.009588
      dyz     :     0.027842
      dx2y2   :     0.013028
      dxy     :     0.013318
  4 C s       :     2.866754  s :     2.866754
      pz      :     1.063919  p :     3.034209
      px      :     0.943445
      py      :     1.026846
      dz2     :     0.029747  d :     0.088985
      dxz     :     0.015672
      dyz     :     0.028438
      dx2y2   :     0.007221
      dxy     :     0.007908
  5 C s       :     2.866871  s :     2.866871
      pz      :     1.056996  p :     3.044045
      px      :     0.961054
      py      :     1.025995
      dz2     :     0.024961  d :     0.088007
      dxz     :     0.012027
      dyz     :     0.029854
      dx2y2   :     0.010278
      dxy     :     0.010886
  6 C s       :     2.834116  s :     2.834116
      pz      :     1.012085  p :     3.130660
      px      :     1.061251
      py      :     1.057324
      dz2     :     0.020830  d :     0.070478
      dxz     :     0.007620
      dyz     :     0.018908
      dx2y2   :     0.009897
      dxy     :     0.013223
  7 H s       :     0.893256  s :     0.893256
      pz      :     0.027003  p :     0.065010
      px      :     0.014585
      py      :     0.023423
  8 H s       :     0.876453  s :     0.876453
      pz      :     0.012627  p :     0.065013
      px      :     0.037792
      py      :     0.014594
  9 H s       :     0.873183  s :     0.873183
      pz      :     0.011742  p :     0.064975
      px      :     0.021054
      py      :     0.032179
 10 H s       :     0.889867  s :     0.889867
      pz      :     0.010924  p :     0.067885
      px      :     0.018078
      py      :     0.038883
 11 H s       :     0.887049  s :     0.887049
      pz      :     0.031175  p :     0.067574
      px      :     0.015993
      py      :     0.020406
 12 H s       :     0.885466  s :     0.885466
      pz      :     0.040079  p :     0.068041
      px      :     0.012123
      py      :     0.015839
 13 H s       :     0.886354  s :     0.886354
      pz      :     0.011114  p :     0.067653
      px      :     0.017722
      py      :     0.038817
 14 H s       :     0.889762  s :     0.889762
      pz      :     0.031049  p :     0.067993
      px      :     0.016358
      py      :     0.020585
 15 N s       :     3.069158  s :     3.069158
      pz      :     1.137890  p :     3.371225
      px      :     1.199518
      py      :     1.033817
      dz2     :     0.069030  d :     0.229744
      dxz     :     0.080486
      dyz     :     0.071387
      dx2y2   :     0.004641
      dxy     :     0.004200
 16 O s       :     3.597994  s :     3.597994
      pz      :     1.348849  p :     4.252625
      px      :     1.464315
      py      :     1.439461
      dz2     :     0.023762  d :     0.056615
      dxz     :     0.018776
      dyz     :     0.010626
      dx2y2   :     0.001951
      dxy     :     0.001500
 17 O s       :     3.597909  s :     3.597909
      pz      :     1.311398  p :     4.250888
      px      :     1.507668
      py      :     1.431822
      dz2     :     0.028651  d :     0.056685
      dxz     :     0.014373
      dyz     :     0.012682
      dx2y2   :     0.000465
      dxy     :     0.000513


                      *****************************
                      * MAYER POPULATION ANALYSIS *
                      *****************************

  NA   - Mulliken gross atomic population
  ZA   - Total nuclear charge
  QA   - Mulliken gross atomic charge
  VA   - Mayer's total valence
  BVA  - Mayer's bonded valence
  FA   - Mayer's free valence

  ATOM       NA         ZA         QA         VA         BVA        FA
  0 C      6.0406     6.0000    -0.0406     3.9603     3.9603     0.0000
  1 C      5.9762     6.0000     0.0238     3.8486     3.8486     0.0000
  2 C      5.9627     6.0000     0.0373     3.8420     3.8420    -0.0000
  3 C      5.9453     6.0000     0.0547     3.8199     3.8199    -0.0000
  4 C      5.9592     6.0000     0.0408     3.8378     3.8378    -0.0000
  5 C      5.9784     6.0000     0.0216     3.8550     3.8550    -0.0000
  6 C      5.9324     6.0000     0.0676     3.9108     3.9108     0.0000
  7 H      0.9597     1.0000     0.0403     0.9978     0.9978     0.0000
  8 H      0.9378     1.0000     0.0622     0.9903     0.9903     0.0000
  9 H      0.9334     1.0000     0.0666     0.9895     0.9895     0.0000
 10 H      0.9877     1.0000     0.0123     0.9901     0.9901     0.0000
 11 H      0.9753     1.0000     0.0247     0.9813     0.9813     0.0000
 12 H      0.9665     1.0000     0.0335     0.9803     0.9803     0.0000
 13 H      0.9742     1.0000     0.0258     0.9813     0.9813     0.0000
 14 H      0.9875     1.0000     0.0125     0.9902     0.9902    -0.0000
 15 N      6.5769     7.0000     0.4231     3.9604     3.9604     0.0000
 16 O      7.9539     8.0000     0.0461     2.3831     2.3831     0.0000
 17 O      7.9521     8.0000     0.0479     2.3850     2.3850     0.0000

  Mayer bond orders larger than 0.100000
B(  0-C ,  1-C ) :   1.2576 B(  0-C ,  5-C ) :   1.2956 B(  0-C ,  6-C ) :   1.0895 
B(  0-C , 15-N ) :   0.1005 B(  1-C ,  2-C ) :   1.4504 B(  1-C , 10-H ) :   0.9913 
B(  2-C ,  3-C ) :   1.2999 B(  2-C , 11-H ) :   0.9862 B(  3-C ,  4-C ) :   1.2902 
B(  3-C , 12-H ) :   0.9849 B(  3-C , 15-N ) :   0.1070 B(  4-C ,  5-C ) :   1.4382 
B(  4-C , 13-H ) :   0.9848 B(  5-C , 14-H ) :   0.9875 B(  6-C ,  7-H ) :   0.9592 
B(  6-C ,  8-H ) :   0.9344 B(  6-C ,  9-H ) :   0.9298 B( 15-N , 16-O ) :   1.8045 
B( 15-N , 17-O ) :   1.8061 B( 16-O , 17-O ) :   0.3874 

-------
TIMINGS
-------

Total SCF time: 0 days 0 hours 6 min 17 sec 

Total time                  ....     377.345 sec
Sum of individual times     ....     372.487 sec  ( 98.7%)

Fock matrix formation       ....     363.025 sec  ( 96.2%)
  Split-RI-J                ....      47.070 sec  ( 13.0% of F)
  Chain of spheres X        ....     256.789 sec  ( 70.7% of F)
  XC integration            ....      58.849 sec  ( 16.2% of F)
    Basis function eval.    ....      20.448 sec  ( 34.7% of XC)
    Density eval.           ....      15.145 sec  ( 25.7% of XC)
    XC-Functional eval.     ....       4.734 sec  (  8.0% of XC)
    XC-Potential eval.      ....      13.706 sec  ( 23.3% of XC)
Diagonalization             ....       0.357 sec  (  0.1%)
Density matrix formation    ....       0.049 sec  (  0.0%)
Population analysis         ....       0.065 sec  (  0.0%)
Initial guess               ....       1.507 sec  (  0.4%)
Orbital Transformation      ....       0.188 sec  (  0.0%)
Orbital Orthonormalization  ....       0.000 sec  (  0.0%)
DIIS solution               ....       0.691 sec  (  0.2%)
SOSCF solution              ....       0.000 sec  (  0.0%)
Grid generation             ....       6.605 sec  (  1.8%)

Maximum memory used throughout the entire SCF-calculation: 69.4 MB


-------------------------------------------------------------------------------
                          DFT DISPERSION CORRECTION                            
                                                                               
                                 DFTD4 V2.5                                    
-------------------------------------------------------------------------------
The B3LYP functional is recognized
Active option DFTDOPT                   ...         5   

Starting D4
-------------------------   ----------------
Dispersion correction           -0.021442454
-------------------------   ----------------


-------------------------   --------------------
FINAL SINGLE POINT ENERGY      -475.724619442140
-------------------------   --------------------

------------------------------------------------------------------------------
                         ORCA SCF GRADIENT CALCULATION
------------------------------------------------------------------------------

 ... reading COSX grid (gridx3)
Gradient of the Kohn-Sham DFT energy:
Kohn-Sham wavefunction type      ... RKS
Hartree-Fock exchange scaling    ...    0.200
Number of operators              ...    1
Number of atoms                  ...   18
Basis set dimensions             ...  180
Integral neglect threshold       ... 2.5e-11
Integral primitive cutoff        ... 2.5e-12
SHARK Integral package           ... ON

Nuc. rep. gradient       (SHARK) ... done (  0.0 sec)
HCore & Overlap gradient (SHARK) ... done (  0.7 sec)
RI-J gradient            (SHARK) ... done (  3.2 sec)
COSX-gradient                    ... done ( 24.9 sec)
Exchange-correlation gradient    ... done
Dispersion correction            ... Starting D4


------------------- 
Dispersion Gradient 
------------------- 
   1  :   -0.000022649    0.000113287    0.000283965
   2  :   -0.000167557    0.000333465   -0.000149403
   3  :   -0.000128170    0.000178642   -0.000460333
   4  :    0.000034342   -0.000170844   -0.000419506
   5  :    0.000179563   -0.000438813   -0.000178289
   6  :    0.000169215   -0.000343737    0.000153534
   7  :   -0.000048900    0.000245367    0.000578277
   8  :   -0.000001753    0.000032318    0.000155460
   9  :   -0.000058261    0.000060213    0.000147990
  10  :    0.000024319    0.000094485    0.000142983
  11  :   -0.000087450    0.000184075   -0.000034462
  12  :   -0.000054341    0.000087186   -0.000145913
  13  :    0.000013138   -0.000064741   -0.000159024
  14  :    0.000069043   -0.000160692   -0.000034415
  15  :    0.000079305   -0.000150292    0.000118267
  16  :    0.000004839   -0.000000702   -0.000000501
  17  :    0.000001658    0.000004529    0.000034947
  18  :   -0.000006343   -0.000003747   -0.000033580

  |G| =    0.000915811

done

------------------
CARTESIAN GRADIENT
------------------

   1   C   :   -0.000000111    0.000003141   -0.000000362
   2   C   :    0.000002595   -0.000003720   -0.000004125
   3   C   :   -0.000018447    0.000008478   -0.000014750
   4   C   :    0.000011300   -0.000016201   -0.000005728
   5   C   :   -0.000007351    0.000003081   -0.000014782
   6   C   :    0.000002258   -0.000001245    0.000000907
   7   C   :   -0.000003785   -0.000007207   -0.000002063
   8   H   :   -0.000002556    0.000000369   -0.000003692
   9   H   :   -0.000003486    0.000005466   -0.000003091
  10   H   :   -0.000002476    0.000000766   -0.000001719
  11   H   :   -0.000003012    0.000005247   -0.000000167
  12   H   :    0.000003638   -0.000007452   -0.000003945
  13   H   :   -0.000006044    0.000004361   -0.000015975
  14   H   :   -0.000000001    0.000000003    0.000000612
  15   H   :   -0.000003913    0.000003950   -0.000000278
  16   N   :    0.000008440   -0.000031210   -0.000003843
  17   O   :    0.000012725    0.000060590    0.000012251
  18   O   :    0.000013213   -0.000014012    0.000004668

Difference to translation invariance:
           :    0.0000029871    0.0000144044   -0.0000560821

Difference to rotation invariance:
[...]
     11      -0.094151   0.053648   0.134825  -0.000028  -0.000132   0.000003
     12       0.040335  -0.031630  -0.025251   0.000010   0.000123  -0.000085
     13      -0.056180   0.104900  -0.029104  -0.000007  -0.000182  -0.000043
     14       0.126326   0.118704  -0.309029   0.000045   0.000287   0.000022
     15      -0.048090   0.016619  -0.037954   0.000007  -0.000078   0.000678
     16       0.120885  -0.074642   0.158666  -0.000025   0.000118   0.000239
     17       0.041308  -0.132300   0.259299  -0.000033   0.000351   0.000008
     18      -0.000769  -0.005471  -0.000499  -0.000001   0.003560   0.083771
     19       0.013895   0.013447   0.011267  -0.000008  -0.042997   0.029938
     20       0.057585   0.004050   0.038080  -0.000005  -0.034801  -0.014099
     21       0.040365   0.016098   0.010016   0.000027   0.111604   0.036835
     22      -0.083510  -0.075206  -0.013015   0.000024  -0.234653  -0.037684
     23      -0.058867  -0.092199   0.010609  -0.000003   0.229656   0.042591
     24       0.010444   0.011087  -0.008449   0.000014  -0.559969  -0.703811
     25       0.121477   0.069588   0.019242   0.000010   0.147818   0.218316
     26      -0.028221   0.002288  -0.005294  -0.000023   0.130447   0.172675
     27      -0.085024  -0.054576  -0.005718  -0.000034   0.407392  -0.341653
     28       0.073650   0.045564   0.017133   0.000005   0.596761  -0.543385
     29      -0.004478   0.001079  -0.000504  -0.000012   0.045617  -0.049642
     30      -0.051003  -0.081654  -0.106806   0.000013   0.001952   0.002030
     31      -0.000080   0.091990   0.138239   0.000017  -0.005273  -0.000873
     32      -0.411271  -0.334596  -0.366531  -0.000018  -0.002151  -0.000682
     33       0.106090  -0.087767  -0.115839  -0.000010  -0.000264  -0.000023
     34      -0.328580   0.190615   0.291126  -0.000056   0.000290   0.000078
     35      -0.313822  -0.028491   0.103760  -0.000034  -0.001368  -0.000192
     36       0.031812  -0.284572  -0.023421  -0.000011  -0.000030   0.000525
     37      -0.095866   0.575744   0.088752   0.000003  -0.000373   0.000247
     38      -0.085504  -0.248564   0.130276  -0.000038  -0.001103  -0.000069
     39      -0.061259  -0.104626   0.091587  -0.000026   0.000343  -0.000598
     40       0.009127   0.173571  -0.122266  -0.000011  -0.000747  -0.000362
     41      -0.462369  -0.228773   0.307173  -0.000006  -0.000660   0.000015
     42       0.092224  -0.099155   0.119434   0.000020  -0.001359  -0.000175
     43      -0.307647   0.265030  -0.308344   0.000001   0.002024   0.000636
     44      -0.350899   0.146392  -0.130786   0.000004  -0.003759  -0.000901
     45      -0.003614   0.000444  -0.024403   0.100533   0.000572  -0.000006
     46       0.000340  -0.000042   0.002307   0.087127  -0.000054   0.000001
     47       0.000390  -0.000048   0.002722   0.832133  -0.000062   0.000001
     48       0.002191  -0.000265   0.013586  -0.137048  -0.000285   0.000003
     49       0.000375  -0.000043   0.001491  -0.029264  -0.000006   0.000000
     50       0.004829  -0.000562   0.022714  -0.353229  -0.000258   0.000003
     51       0.000973  -0.000123   0.007779   0.049038  -0.000215   0.000002
     52      -0.000672   0.000080  -0.003512  -0.047014   0.000053  -0.000001
     53      -0.005169   0.000610  -0.025096  -0.375276   0.000313  -0.000004
                 48         49         50         51         52         53    
      0       0.000292   0.000568  -0.000975  -0.000243  -0.000870  -0.000134
      1      -0.001051  -0.000710   0.002187   0.000941   0.001838   0.000596
      2      -0.001203   0.002128  -0.000056   0.001444  -0.000465   0.001094
      3      -0.000306  -0.027515   0.010723  -0.011032   0.008015  -0.005762
      4       0.000521   0.065758  -0.025885   0.026730  -0.020077   0.014466
      5      -0.000016   0.012563  -0.005823   0.006342  -0.006958   0.005101
      6      -0.000004   0.012838   0.000175  -0.009160   0.019450  -0.016205
      7       0.000035  -0.021670   0.000335   0.013824  -0.031401   0.026900
      8       0.000060   0.026422   0.002608  -0.024690   0.045144  -0.034985
      9       0.000045   0.000724   0.001467  -0.002149  -0.002086   0.002138
     10      -0.000073  -0.007313  -0.010235   0.020567   0.005881  -0.019019
     11       0.000100  -0.020292  -0.024716   0.056171   0.004128  -0.050727
     12       0.000084  -0.005703  -0.017317   0.002640   0.020296   0.018841
     13      -0.000156   0.013765   0.041262  -0.007507  -0.049417  -0.045029
     14       0.000103   0.002963   0.007063  -0.005422  -0.012071  -0.008175
     15      -0.000922   0.003854   0.021066   0.016007   0.010448   0.006941
     16       0.001580  -0.006620  -0.034977  -0.026221  -0.016289  -0.010648
     17      -0.002455   0.007625   0.045994   0.036235   0.026601   0.018289
     18       0.035209  -0.000240   0.000933   0.000364   0.000380   0.000171
     19      -0.070563   0.000357  -0.001876  -0.000793  -0.000751  -0.000423
     20       0.047572   0.000108   0.001366   0.000809   0.000526   0.000250
     21      -0.304079   0.000008  -0.008349  -0.004438  -0.002962  -0.001774
     22       0.621303  -0.000349   0.016713   0.008606   0.005969   0.003395
     23      -0.632256  -0.001750  -0.018609  -0.011327  -0.006389  -0.004640
     24      -0.243927   0.004470  -0.005827  -0.000318  -0.002132  -0.000941
     25       0.058954  -0.001189   0.001389  -0.000030   0.000416   0.000191
     26       0.064520  -0.002445   0.001441  -0.001157   0.000458  -0.000335
     27       0.127654  -0.002142   0.003146   0.000218   0.001182   0.000639
     28       0.168357  -0.002649   0.003999   0.000284   0.001319   0.000923
     29       0.020199  -0.001409   0.000420  -0.001082   0.000087  -0.000410
     30       0.002542   0.314697  -0.123244   0.123884  -0.091227   0.063501
     31      -0.006246  -0.753673   0.295389  -0.296953   0.219245  -0.152664
     32      -0.002336  -0.150027   0.059508  -0.060039   0.046210  -0.032399
     33      -0.000524  -0.148446  -0.005950   0.113589  -0.220744   0.174225
     34       0.000945   0.243439   0.009151  -0.184717   0.360794  -0.285537
     35      -0.001217  -0.330973  -0.015350   0.258668  -0.496348   0.389030
     36      -0.000021  -0.010002  -0.012926   0.027224   0.004643  -0.023654
     37      -0.000441   0.089081   0.110910  -0.241715  -0.027690   0.208775
     38      -0.001669   0.237721   0.292083  -0.644251  -0.061435   0.555297
     39      -0.001579   0.067807   0.201685  -0.036476  -0.230794  -0.204363
     40       0.003711  -0.163056  -0.484440   0.088834   0.555338   0.490854
     41       0.000859  -0.032979  -0.096256   0.021652   0.113507   0.097385
     42       0.010065  -0.042013  -0.240029  -0.181105  -0.120883  -0.078997
     43      -0.015980   0.069255   0.394682   0.297519   0.197921   0.129156
     44       0.025674  -0.093692  -0.538254  -0.407159  -0.274154  -0.179914
     45       0.000322   0.000098   0.000031   0.000148   0.000008   0.000239
     46      -0.000030  -0.000009  -0.000003  -0.000014  -0.000001  -0.000023
     47      -0.000036  -0.000010  -0.000003  -0.000016  -0.000000  -0.000026
     48      -0.000160  -0.000049  -0.000016  -0.000073  -0.000004  -0.000119
     49      -0.000003  -0.000001  -0.000000  -0.000001  -0.000000  -0.000002
     50      -0.000142  -0.000043  -0.000014  -0.000065  -0.000003  -0.000105
     51      -0.000122  -0.000037  -0.000012  -0.000056  -0.000003  -0.000090
     52       0.000030   0.000009   0.000003   0.000014   0.000001   0.000022
     53       0.000174   0.000052   0.000017   0.000079   0.000004   0.000127


-----------
IR SPECTRUM
-----------

 Mode   freq       eps      Int      T**2         TX        TY        TZ
       cm**-1   L/(mol*cm) km/mol    a.u.
----------------------------------------------------------------------------
  8:      1.27   0.000000    0.00  0.000000  ( 0.000000  0.000000  0.000000)
  9:      3.77   0.000000    0.00  0.000000  ( 0.000000  0.000000  0.000000)
 10:     10.95   0.000043    0.22  0.001233  ( 0.002262  0.032882 -0.012105)
 11:     17.71   0.000322    1.63  0.005676  (-0.072725 -0.018101  0.007700)
 12:     20.02   0.000341    1.72  0.005313  ( 0.006573  0.071164 -0.014349)
 13:    189.85   0.000260    1.31  0.000427  (-0.018643 -0.008728  0.001723)
 14:    346.90   0.003361   16.98  0.003023  ( 0.006598  0.012401  0.053160)
 15:    390.21   0.000000    0.00  0.000000  (-0.000055 -0.000456 -0.000240)
 16:    454.64   0.000735    3.72  0.000505  (-0.018761 -0.008555 -0.008914)
 17:    519.28   0.567494  2867.88  0.341039  ( 0.098377  0.052809  0.573212)
 18:    564.72   0.839451  4242.24  0.463880  (-0.110110 -0.066735 -0.668807)
 19:    572.49   4.597576  23234.26  2.506119  (-0.257523 -0.145370 -1.555207)
 20:    651.66   0.004348   21.97  0.002082  (-0.041383 -0.018322  0.005809)
 21:    755.12   0.006643   33.57  0.002746  ( 0.047620  0.020406 -0.007840)
 22:    795.41   0.014688   74.23  0.005763  ( 0.015656  0.001422  0.074267)
 23:    833.88   0.000023    0.11  0.000008  (-0.002511 -0.001035  0.001054)
 24:    933.77   0.000447    2.26  0.000149  ( 0.003138  0.002102  0.011625)
 25:    979.91   0.079268  400.59  0.025244  (-0.024454 -0.022292 -0.155399)
 26:   1008.60   0.034417  173.93  0.010649  ( 0.021326  0.008166  0.100634)
 27:   1013.68   0.000147    0.75  0.000045  (-0.005894 -0.003018 -0.001245)
 28:   1020.61   0.002393   12.10  0.000732  (-0.022533 -0.011240 -0.009887)
 29:   1029.07   0.018655   94.28  0.005657  ( 0.016012  0.003829  0.073390)
 30:   1034.27   0.000188    0.95  0.000057  (-0.004852 -0.002492 -0.005190)
 31:   1101.95   0.003729   18.85  0.001056  ( 0.003798 -0.022371 -0.023264)
 32:   1157.44   0.007865   39.75  0.002121  (-0.006599 -0.006718 -0.045076)
 33:   1195.25   0.229358  1159.08  0.059882  (-0.042924 -0.024379 -0.239678)
 34:   1247.99   0.227288  1148.62  0.056834  (-0.039429 -0.027786 -0.233468)
 35:   1315.04   0.079072  399.60  0.018764  (-0.018604 -0.022465 -0.133840)
 36:   1365.02   1.096185  5539.67  0.250604  ( 0.079797  0.067533  0.489567)
 37:   1376.68   5.230211  26431.34  1.185573  (-0.199463 -0.090944 -1.066544)
 38:   1387.94   0.015745   79.57  0.003540  (-0.013806 -0.000032 -0.057875)
 39:   1423.87   0.000967    4.89  0.000212  ( 0.008259  0.011164 -0.004370)
 40:   1427.52   0.001764    8.92  0.000386  (-0.019600 -0.000212 -0.001208)
 41:   1458.18   0.004545   22.97  0.000973  (-0.003452  0.023182  0.020575)
 42:   1498.36   0.032396  163.72  0.006747  (-0.001657 -0.023944 -0.078556)
 43:   1516.04   0.001973    9.97  0.000406  (-0.008040  0.018088 -0.003772)
 44:   1670.59   0.566008  2860.37  0.105729  (-0.056897 -0.031634 -0.318577)
 45:   2145.51   0.065276  329.88  0.009494  ( 0.011565  0.010097  0.096222)
 46:   3007.32   0.083120  420.05  0.008625  ( 0.014069  0.012573  0.090935)
 47:   3063.16   0.000048    0.24  0.000005  ( 0.001135  0.000128 -0.001895)
 48:   3146.09   0.039517  199.70  0.003920  ( 0.010608  0.003949  0.061576)
 49:   3187.81   0.003585   18.12  0.000351  ( 0.002080  0.003816  0.018223)
 50:   3192.40   0.000576    2.91  0.000056  ( 0.001424 -0.000072  0.007368)
 51:   3199.62   0.007563   38.22  0.000738  ( 0.003924  0.003743  0.026612)
 52:   3207.54   0.000215    1.09  0.000021  ( 0.001742 -0.002767  0.003193)
 53:   3213.96   0.012323   62.28  0.001197  ( 0.006952  0.002098  0.033820)

* The epsilon (eps) is given for a Dirac delta lineshape.
** The dipole moment derivative (T) already includes vibrational overlap.

The first frequency considered to be a vibration is 8
The total number of vibrations considered is 46


--------------------------
THERMOCHEMISTRY AT 298.15K
--------------------------

Temperature         ... 298.15 K
Pressure            ... 1.00 atm
Total Mass          ... 138.15 AMU

Throughout the following assumptions are being made:
  (1) The electronic state is orbitally nondegenerate
  (2) There are no thermally accessible electronically excited states
  (3) Hindered rotations indicated by low frequency modes are not
      treated as such but are treated as vibrations and this may
      cause some error
  (4) All equations used are the standard statistical mechanics
      equations for an ideal gas
  (5) All vibrations are strictly harmonic

freq.       1.27  E(vib)   ...       0.59 
freq.       3.77  E(vib)   ...       0.59 
freq.      10.95  E(vib)   ...       0.58 
freq.      17.71  E(vib)   ...       0.57 
freq.      20.02  E(vib)   ...       0.56 
freq.     189.85  E(vib)   ...       0.36 
freq.     346.90  E(vib)   ...       0.23 
freq.     390.21  E(vib)   ...       0.20 
freq.     454.64  E(vib)   ...       0.16 
freq.     519.28  E(vib)   ...       0.13 
freq.     564.72  E(vib)   ...       0.11 
freq.     572.49  E(vib)   ...       0.11 
freq.     651.66  E(vib)   ...       0.08 
freq.     755.12  E(vib)   ...       0.06 
freq.     795.41  E(vib)   ...       0.05 
freq.     833.88  E(vib)   ...       0.04 
freq.     933.77  E(vib)   ...       0.03 
freq.     979.91  E(vib)   ...       0.02 
freq.    1008.60  E(vib)   ...       0.02 
freq.    1013.68  E(vib)   ...       0.02 
freq.    1020.61  E(vib)   ...       0.02 
freq.    1029.07  E(vib)   ...       0.02 
freq.    1034.27  E(vib)   ...       0.02 
freq.    1101.95  E(vib)   ...       0.02 
freq.    1157.44  E(vib)   ...       0.01 
freq.    1195.25  E(vib)   ...       0.01 
freq.    1247.99  E(vib)   ...       0.01 
freq.    1315.04  E(vib)   ...       0.01 
freq.    1365.02  E(vib)   ...       0.01 
freq.    1376.68  E(vib)   ...       0.01 
freq.    1387.94  E(vib)   ...       0.00 
freq.    1423.87  E(vib)   ...       0.00 
freq.    1427.52  E(vib)   ...       0.00 
freq.    1458.18  E(vib)   ...       0.00 
freq.    1498.36  E(vib)   ...       0.00 
freq.    1516.04  E(vib)   ...       0.00 
freq.    1670.59  E(vib)   ...       0.00 
freq.    2145.51  E(vib)   ...       0.00 
freq.    3007.32  E(vib)   ...       0.00 
freq.    3063.16  E(vib)   ...       0.00 
freq.    3146.09  E(vib)   ...       0.00 
freq.    3187.81  E(vib)   ...       0.00 
freq.    3192.40  E(vib)   ...       0.00 
freq.    3199.62  E(vib)   ...       0.00 
freq.    3207.54  E(vib)   ...       0.00 
freq.    3213.96  E(vib)   ...       0.00 

------------
INNER ENERGY
------------

The inner energy is: U= E(el) + E(ZPE) + E(vib) + E(rot) + E(trans)
    E(el)   - is the total energy from the electronic structure calculation
              = E(kin-el) + E(nuc-el) + E(el-el) + E(nuc-nuc)
    E(ZPE)  - the the zero temperature vibrational energy from the frequency calculation
    E(vib)  - the the finite temperature correction to E(ZPE) due to population
              of excited vibrational states
    E(rot)  - is the rotational thermal energy
    E(trans)- is the translational thermal energy

Summary of contributions to the inner energy U:
Electronic energy                ...   -475.72468862 Eh
Zero point energy                ...      0.13589968 Eh      85.28 kcal/mol
Thermal vibrational correction   ...      0.00746145 Eh       4.68 kcal/mol
Thermal rotational correction    ...      0.00141627 Eh       0.89 kcal/mol
Thermal translational correction ...      0.00141627 Eh       0.89 kcal/mol
-----------------------------------------------------------------------
Total thermal energy                   -475.57849494 Eh


Summary of corrections to the electronic energy:
(perhaps to be used in another calculation)
Total thermal correction                  0.01029399 Eh       6.46 kcal/mol
Non-thermal (ZPE) correction              0.13589968 Eh      85.28 kcal/mol
-----------------------------------------------------------------------
Total correction                          0.14619367 Eh      91.74 kcal/mol


--------
ENTHALPY
--------

The enthalpy is H = U + kB*T
                kB is Boltzmann's constant
Total free energy                 ...   -475.57849494 Eh 
Thermal Enthalpy correction       ...      0.00094421 Eh       0.59 kcal/mol
-----------------------------------------------------------------------
Total Enthalpy                    ...   -475.57755074 Eh


Note: Only C1 symmetry has been detected, increase convergence thresholds 
      if your molecule has a higher symmetry. Symmetry factor of 1.0 is   
      used for the rotational entropy correction. 
 

Note: Rotational entropy computed according to Herzberg 
Infrared and Raman Spectra, Chapter V,1, Van Nostrand Reinhold, 1945 
Point Group:  C1, Symmetry Number:   1  
Rotational constants in cm-1:     0.156599     0.000684     0.000681 

Vibrational entropy computed according to the QRRHO of S. Grimme
Chem.Eur.J. 2012 18 9955


-------
ENTROPY
-------

The entropy contributions are T*S = T*(S(el)+S(vib)+S(rot)+S(trans))
     S(el)   - electronic entropy
     S(vib)  - vibrational entropy
     S(rot)  - rotational entropy
     S(trans)- translational entropy
The entropies will be listed as multiplied by the temperature to get
units of energy

Electronic entropy                ...      0.00000000 Eh      0.00 kcal/mol
Vibrational entropy               ...      0.01721203 Eh     10.80 kcal/mol
Rotational entropy                ...      0.01726850 Eh     10.84 kcal/mol
Translational entropy             ...      0.01932890 Eh     12.13 kcal/mol
-----------------------------------------------------------------------
Final entropy term                ...      0.05380943 Eh     33.77 kcal/mol

In case the symmetry of your molecule has not been determined correctly
or in case you have a reason to use a different symmetry number we print 
out the resulting rotational entropy values for sn=1,12 :
 --------------------------------------------------------
|  sn= 1 | S(rot)=       0.01726850 Eh     10.84 kcal/mol|
|  sn= 2 | S(rot)=       0.01661405 Eh     10.43 kcal/mol|
|  sn= 3 | S(rot)=       0.01623121 Eh     10.19 kcal/mol|
|  sn= 4 | S(rot)=       0.01595959 Eh     10.01 kcal/mol|
|  sn= 5 | S(rot)=       0.01574890 Eh      9.88 kcal/mol|
|  sn= 6 | S(rot)=       0.01557676 Eh      9.77 kcal/mol|
|  sn= 7 | S(rot)=       0.01543121 Eh      9.68 kcal/mol|
|  sn= 8 | S(rot)=       0.01530513 Eh      9.60 kcal/mol|
|  sn= 9 | S(rot)=       0.01519392 Eh      9.53 kcal/mol|
|  sn=10 | S(rot)=       0.01509445 Eh      9.47 kcal/mol|
|  sn=11 | S(rot)=       0.01500446 Eh      9.42 kcal/mol|
|  sn=12 | S(rot)=       0.01492230 Eh      9.36 kcal/mol|
 --------------------------------------------------------


-------------------
GIBBS FREE ENERGY
-------------------

The Gibbs free energy is G = H - T*S

Total enthalpy                    ...   -475.57755074 Eh 
Total entropy correction          ...     -0.05380943 Eh    -33.77 kcal/mol
-----------------------------------------------------------------------
Final Gibbs free energy         ...   -475.63136017 Eh

For completeness - the Gibbs free energy minus the electronic energy
G-E(el)                           ...      0.09332845 Eh     58.56 kcal/mol


Timings for individual modules:

Sum of individual times         ...    60557.456 sec (=1009.291 min)
GTO integral calculation        ...        9.802 sec (=   0.163 min)   0.0 %
SCF iterations                  ...     3425.069 sec (=  57.084 min)   5.7 %
SCF Gradient evaluation         ...     1409.828 sec (=  23.497 min)   2.3 %
Geometry relaxation             ...        3.105 sec (=   0.052 min)   0.0 %
Analytical frequency calculation...    55709.652 sec (= 928.494 min)  92.0 %
                             ****ORCA TERMINATED NORMALLY****
TOTAL RUN TIME: 0 days 16 hours 49 minutes 28 seconds 353 msec
