20
# ORCA AIMD Position Step 0, t=0.00 fs, E_Pot=-944.93885140 Hartree, Unit is Angstrom
 C     -2.5631000115      1.3840000062     -0.2444500011
 C     -3.9380200176      1.9148500086      0.2119100009
 O     -4.9828300223      1.1280100051     -0.4112000018
 H     -4.0587100182      2.9591700133     -0.0877900004
 H     -4.0269600180      1.8376300082      1.2993200058
 C     -2.3672100106     -0.0832200004      0.1839700008
 O     -1.0872300049     -0.5499200025     -0.3111900014
 H     -3.1582200141     -0.7088400032     -0.2396900011
 H     -2.3817600107     -0.1607200007      1.2746000057
 O     -1.5221600068      2.1776100098      0.3857000017
 H     -2.4700700111      1.4519700065     -1.3322100060
 N     -6.3471300284      1.4596800065     -0.1247400006
 N     -1.2400300056      3.4963900157     -0.1014900005
 N     -0.6821100031     -1.8876000085      0.0023200000
 O     -6.5726600294      2.3732500106      0.6529200029
 O     -0.3571200016      4.0875600183      0.4947000022
 O     -1.4341800064     -2.5825500116      0.6670800030
 O     -7.1762900321      0.7494000034     -0.6656600030
 O     -1.8347000082      3.8947800174     -1.0902400049
 O      0.4013500018     -2.2193800099     -0.4458700020
20
# ORCA AIMD Position Step 1, t=1.00 fs, E_Pot=-944.92389756 Hartree, Unit is Angstrom
 C     -2.5499398735      1.3837964265     -0.2372990123
 C     -3.9453079300      1.9514098855      0.2478762090
 O     -4.9694502285      1.1279955812     -0.4113389816
 H     -3.9786716973      2.8851526748     -0.0334491486
 H     -4.0897065073      1.8883298579      1.2673191803
 C     -2.3861495050     -0.0676982812      0.1753828206
 O     -1.0836330893     -0.5596231972     -0.3186232779
 H     -3.1095542389     -0.7453883525     -0.2473549106
 H     -2.4561618089     -0.1342061076      1.2754126636
 O     -1.5199221370      2.1496556482      0.3775714445
 H     -2.4405544115      1.4324339748     -1.3885242990
 N     -6.3462865989      1.4485748878     -0.1215032869
 N     -1.2221759183      3.4880162187     -0.0998073652
 N     -0.7055394856     -1.8891326273     -0.0071008950
 O     -6.5749493154      2.3707651622      0.6645598059
 O     -0.3513175690      4.0785270864      0.4916862116
 O     -1.4337176061     -2.5865881742      0.6675203489
 O     -7.1839032090      0.7608804903     -0.6884798167
 O     -1.8418074961      3.9218356492     -1.0734361777
 O      0.4055058065     -2.2219072322     -0.4526291324
20
# ORCA AIMD Position Step 2, t=2.00 fs, E_Pot=-944.91713932 Hartree, Unit is Angstrom
 C     -2.5379146673      1.3841728510     -0.2329149087
 C     -3.9525343856      1.9833048267      0.2829790053
 O     -4.9538010525      1.1261278097     -0.4132283835
 H     -3.9029362709      2.8825028576     -0.0003741264
 H     -4.1524204184      1.9368803108      1.2742325805
 C     -2.4045099094     -0.0535828898      0.1681346967
 O     -1.0794222574     -0.5655820119     -0.3275945267
 H     -3.0784737876     -0.7866308149     -0.2609722655
 H     -2.5303281488     -0.1094697617      1.2829059576
 O     -1.5162849305      2.1195275845      0.3721229484
 H     -2.4164714667      1.4151028517     -1.4362152460
 N     -6.3441648325      1.4382714999     -0.1176198211
 N     -1.2062710550      3.4781574442     -0.0994364813
 N     -0.7284740761     -1.8900681774     -0.0170399781
 O     -6.5776931098      2.3721427263      0.6794987014
 O     -0.3408526482      4.0718279982      0.4923850836
 O     -1.4374471928     -2.5938318976      0.6714551959
 O     -7.1945908516      0.7689688896     -0.7141554910
 O     -1.8518927742      3.9501886216     -1.0606795100
 O      0.4136449083     -2.2249420002     -0.4613282829
20
# ORCA AIMD Position Step 3, t=3.00 fs, E_Pot=-944.95230835 Hartree, Unit is Angstrom
 C     -2.5278834588      1.3851937034     -0.2322983021
 C     -3.9595895786      2.0080299679      0.3163104316
 O     -4.9360076444      1.1229919070     -0.4165662349
 H     -3.8294907088      2.9748636068      0.0016185024
 H     -4.2168258263      1.9817128710      1.3307234210
 C     -2.4221308779     -0.0417566546      0.1626783583
 O     -1.0749476616     -0.5675094662     -0.3378102715
 H     -3.0649368502     -0.8287936747     -0.2805401824
 H     -2.6007161938     -0.0875065047      1.2907145807
 O     -1.5106947731      2.0878504302      0.3693575830
 H     -2.4007732224      1.4015264836     -1.4635004433
 N     -6.3412496714      1.4289129114     -0.1129853137
 N     -1.1929890180      3.4668679992     -0.1010992616
 N     -0.7494993857     -1.8909617011     -0.0280065439
 O     -6.5807263431      2.3765963109      0.6971621610
 O     -0.3256163402      4.0674056997      0.4968522632
 O     -1.4453126731     -2.6042478908      0.6788702510
 O     -7.2078273584      0.7741960969     -0.7423350768
 O     -1.8645456263      3.9794800170     -1.0511659709
 O      0.4245831828     -2.2281983839     -0.4715039780
20
# ORCA AIMD Position Step 4, t=4.00 fs, E_Pot=-944.97397695 Hartree, Unit is Angstrom
 C     -2.5206626987      1.3867846698     -0.2358695991
 C     -3.9663972886      2.0293933165      0.3471853804
 O     -4.9163208165      1.1191759770     -0.4209651744
 H     -3.7620733628      3.1085672793     -0.0110628954
 H     -4.2795414902      2.0234860090      1.4182568952
 C     -2.4392097273     -0.0333397334      0.1591536756
 O     -1.0705321931     -0.5653045455     -0.3489452873
 H     -3.0646858840     -0.8641539143     -0.3031373537
 H     -2.6637635783     -0.0693551029      1.2931078132
 O     -1.5026574332      2.0553726842      0.3692351915
 H     -2.3949306783      1.3932432871     -1.4656496539
 N     -6.3382285757      1.4205245535     -0.1076912732
 N     -1.1825223214      3.4546288726     -0.1050970379
 N     -0.7676579574     -1.8925237407     -0.0401021800
 O     -6.5838649953      2.3832670165      0.7168513200
 O     -0.3060575367      4.0649236122      0.5047501709
 O     -1.4568984696     -2.6174443676      0.6894040407
 O     -7.2228439958      0.7772317336     -0.7723807647
 O     -1.8792344537      4.0092072602     -1.0440828054
 O      0.4372075709     -2.2314389923     -0.4827105287
20
# ORCA AIMD Position Step 5, t=5.00 fs, E_Pot=-944.97258431 Hartree, Unit is Angstrom
 C     -2.5169133382      1.3888470752     -0.2435548372
 C     -3.9727996030      2.0508649921      0.3758602253
 O     -4.8950480231      1.1152225686     -0.4259828939
 H     -3.7087065769      3.2349866348     -0.0222184390
 H     -4.3339109047      2.0627584259      1.5087878277
 C     -2.4560411405     -0.0292283147      0.1574018575
 O     -1.0664491978     -0.5590833231     -0.3606868798
 H     -3.0728761955     -0.8851626937     -0.3252517487
 H     -2.7166616976     -0.0559727506      1.2867362854
 O     -1.4917836753      2.0227701669      0.3716379841
 H     -2.3992922844      1.3915425188     -1.4432795972
 N     -6.3358337204      1.4130486591     -0.1019504188
 N     -1.1745526542      3.4421854357     -0.1112984517
 N     -0.7825261141     -1.8955169257     -0.0531109332
 O     -6.5869356172      2.3913122339      0.7378781235
 O     -0.2830307734      4.0638051627      0.5154262502
 O     -1.4715433961     -2.6327779009      0.7024289713
 O     -7.2388103833      0.7787874557     -0.8035842964
 O     -1.8954191320      4.0388996803     -1.0386487581
 O      0.4505751364     -2.2344919483     -0.4945781685
20
# ORCA AIMD Position Step 6, t=6.00 fs, E_Pot=-944.96428570 Hartree, Unit is Angstrom
 C     -2.5170531656      1.3912798647     -0.2547227782
 C     -3.9787977533      2.0737858594      0.4028065256
 O     -4.8725350099      1.1116095221     -0.4311668321
 H     -3.6736830978      3.3328327668     -0.0246767939
 H     -4.3747170724      2.0991491629      1.5823554968
 C     -2.4728260055     -0.0298274775      0.1570328650
 O     -1.0629223628     -0.5491534340     -0.3727434709
 H     -3.0859878127     -0.8872062892     -0.3443326230
 H     -2.7576860656     -0.0481672306      1.2712340720
 O     -1.4778477251      1.9905713841      0.3763510774
 H     -2.4133738384      1.3974639776     -1.4021401803
 N     -6.3347111308      1.4064018202     -0.0960281965
 N     -1.1684433905      3.4303616701     -0.1192754689
 N     -0.7940713811     -1.9006182114     -0.0666418367
 O     -6.5897888414      2.3999693856      0.7596262660
 O     -0.2575692470      4.0633720900      0.5280740307
 O     -1.4884905739     -2.6495006442      0.7171873270
 O     -7.2549585806      0.7795203573     -0.8352770267
 O     -1.9126137774      4.0681587313     -1.0341582058
 O      0.4639286893     -2.2372438912     -0.5068192588
20
# ORCA AIMD Position Step 7, t=7.00 fs, E_Pot=-944.95543878 Hartree, Unit is Angstrom
 C     -2.5212127055      1.3939576448     -0.2679667536
 C     -3.9844373607      2.0983190790      0.4282151140
 O     -4.8491790680      1.1087436008     -0.4360936795
 H     -3.6578307283      3.3963071468     -0.0166695268
 H     -4.3994457891      2.1318376540      1.6291368374
 C     -2.4895726162     -0.0350005008      0.1574489065
 O     -1.0601397875     -0.5359833568     -0.3848332808
 H     -3.1022224845     -0.8693659449     -0.3593177185
 H     -2.7863000420     -0.0465583397      1.2492931693
 O     -1.4608426616      1.9591620940      0.3830372240
 H     -2.4358757055      1.4118119095     -1.3546839810
 N     -6.3353504503      1.4005142225     -0.0902015548
 N     -1.1634668718      3.4199256847     -0.1284658209
 N     -0.8024709923     -1.9083080933     -0.0802525258
 O     -6.5923021317      2.4085761631      0.7815534747
 O     -0.2307052959      4.0629757526      0.5418735335
 O     -1.5069897317     -2.6668730106      0.7329012977
 O     -7.2706312275      0.7799859820     -0.8668540068
 O     -1.9303820110      4.0966334061     -1.0300042407
 O      0.4766625030     -2.2396261901     -0.5192055334
20
# ORCA AIMD Position Step 8, t=8.00 fs, E_Pot=-944.94752896 Hartree, Unit is Angstrom
 C     -2.5292715258      1.3967507589     -0.2809569182
 C     -3.9896652231      2.1243462997      0.4519532363
 O     -4.8254001612      1.1069807976     -0.4403779551
 H     -3.6611017066      3.4232898188      0.0022862054
 H     -4.4072553141      2.1599832272      1.6452573063
 C     -2.5060558954     -0.0441092107      0.1578730935
 O     -1.0582696439     -0.5201616396     -0.3966846207
 H     -3.1215593917     -0.8344553159     -0.3708388138
 H     -2.8031873943     -0.0515229539      1.2263762762
 O     -1.4410081115      1.9287937171      0.3912218557
 H     -2.4647893294      1.4352437127     -1.3208667059
 N     -6.3380629416      1.3953463128     -0.0847280146
 N     -1.1589549565      3.4115223183     -0.1382962721
 N     -0.8079904361     -1.9188242819     -0.0935325558
 O     -6.5943788753      2.4165733023      0.8031886330
 O     -0.2033575042      4.0620726670      0.5560807268
 O     -1.5263559067     -2.6842375256      0.7488461453
 O     -7.2852971813      0.7806286415     -0.8977884899
 O     -1.9483239383      4.1240043081     -1.0256780800
 O      0.4882901525     -2.2416059439     -0.5315505669
20
# ORCA AIMD Position Step 9, t=9.00 fs, E_Pot=-944.94616030 Hartree, Unit is Angstrom
 C     -2.5408121682      1.3995108668     -0.2910689228
 C     -3.9943340782      2.1516542055      0.4736535619
 O     -4.8016309490      1.1066175465     -0.4436952738
 H     -3.6832813590      3.4132902174      0.0322071316
 H     -4.3986123664      2.1829099527      1.6313684603
 C     -2.5218068283     -0.0561244491      0.1574705898
 O     -1.0574737595     -0.5023466927     -0.4080454012
 H     -3.1458667030     -0.7887707610     -0.3813593945
 H     -2.8100051790     -0.0631824404      1.2095737968
 O     -1.4187946928      1.8996155607      0.4003156442
 H     -2.4981496343      1.4684430839     -1.3212062493
 N     -6.3430062864      1.3908887032     -0.0798313859
 N     -1.1543677870      3.4056601174     -0.1482500763
 N     -0.8109179831     -1.9321739085     -0.1061417576
 O     -6.5959511006      2.4234978821      0.8241257376
 O     -0.1762862158      4.0602495098      0.5700665700
 O     -1.5459919232     -2.7010526642      0.7643869960
 O     -7.2985467675      0.7817916237     -0.9276332962
 O     -1.9660625741      4.1499756488     -1.0207633015
 O      0.4984211809     -2.2431803865     -0.5436980603
20
# ORCA AIMD Position Step 10, t=10.00 fs, E_Pot=-944.95101025 Hartree, Unit is Angstrom
 C     -2.5551196096      1.4021481582     -0.2969642300
 C     -3.9982015437      2.1799035107      0.4926953430
 O     -4.7783098127      1.1078847102     -0.4457933354
 H     -3.7239319558      3.3677435949      0.0725083387
 H     -4.3755759818      2.2001290044      1.5932200397
 C     -2.5361920140     -0.0698148197      0.1555861940
 O     -1.0579157574     -0.4832233031     -0.4186915432
 H     -3.1785937404     -0.7409239185     -0.3948047010
 H     -2.8086619362     -0.0814689761      1.2050404260
 O     -1.3947936412      1.8717314557      0.4096745415
 H     -2.5349397909      1.5114108851     -1.3595727008
 N     -6.3502149828      1.3871605783     -0.0756968028
 N     -1.1493116078      3.4027180568     -0.1578888272
 N     -0.8115345755     -1.9481712392     -0.1178149181
 O     -6.5969793003      2.4289705633      0.8440093724
 O     -0.1501021872      4.0572209772      0.5833184324
 O     -1.5653832761     -2.7168935459      0.7789859408
 O     -7.3100719771      0.7837331694     -0.9560036714
 O     -1.9832302684      4.1742679332     -1.0149319904
 O      0.5067427272     -2.2443733042     -0.5555100133
20
# ORCA AIMD Position Step 11, t=11.00 fs, E_Pot=-944.94786103 Hartree, Unit is Angstrom
 C     -2.5713720447      1.4048183720     -0.2991812561
 C     -4.0009053425      2.2084649305      0.5080606091
 O     -4.7558467697      1.1109605914     -0.4464792558
 H     -3.7818297442      3.2914872461      0.1212721087
 H     -4.3424872147      2.2111669910      1.5436075821
 C     -2.5486618873     -0.0840598182      0.1519419145
 O     -1.0597545678     -0.4634574255     -0.4284407006
 H     -3.2229924245     -0.6988404661     -0.4147758490
 H     -2.8004098843     -0.1062016083      1.2146365153
 O     -1.3696552416      1.8452333686      0.4186742359
 H     -2.5744564874      1.5617854274     -1.4177918034
 N     -6.3596245891      1.3842047133     -0.0724647986
 N     -1.1435220100      3.4029493441     -0.1668504605
 N     -0.8101117937     -1.9664926117     -0.1283545121
 O     -6.5974508431      2.4326877710      0.8625325954
 O     -0.1252825455      4.0528138592      0.5954296868
 O     -1.5840920197     -2.7314456787      0.7922013649
 O     -7.3196523993      0.7866425142     -0.9825739898
 O     -1.9994770955      4.1966320787     -1.0079382527
 O      0.5130144579     -2.2452332602     -0.5668641501
20
# ORCA AIMD Position Step 12, t=12.00 fs, E_Pot=-944.91960244 Hartree, Unit is Angstrom
 C     -2.5888194239      1.4079106498     -0.2988757014
 C     -4.0021043147      2.2356794608      0.5184508122
 O     -4.7345800622      1.1159691430     -0.4456180327
 H     -3.8527894563      3.2022723004      0.1715018751
 H     -4.3065499988      2.2151044140      1.5047412344
 C     -2.5590832310     -0.0981894445      0.1465577246
 O     -1.0631331921     -0.4436350932     -0.4371703095
 H     -3.2789031599     -0.6661750010     -0.4416136773
 H     -2.7855610163     -0.1370352942      1.2343718166
 O     -1.3440005646      1.8201872785      0.4267733581
 H     -2.6153126824      1.6151538281     -1.4720634230
 N     -6.3711122381      1.3820773462     -0.0702258305
 N     -1.1368271491      3.4064881511     -0.1748449463
 N     -0.8069172544     -1.9867537716     -0.1376263494
 O     -6.5973783152      2.4344177043      0.8794552991
 O     -0.1021671346      4.0469415651      0.6060946399
 O     -1.6017672438     -2.7445064064      0.8036933857
 O     -7.3271500179      0.7906578673     -1.0071010615
 O     -2.0145042867      4.2168865966     -0.9996004302
 O      0.5170728822     -2.2458318293     -0.5776656864
20
# ORCA AIMD Position Step 13, t=13.00 fs, E_Pot=-944.87430476 Hartree, Unit is Angstrom
 C     -2.6068395767      1.4118783020     -0.2968300555
 C     -4.0017769140      2.2577947210      0.5232934992
 O     -4.7147474763      1.1229776721     -0.4431313664
 H     -3.9287986735      3.1445065685      0.2059336734
 H     -4.2751119968      2.2101046583      1.5016685439
 C     -2.5678484459     -0.1120478068      0.1394941158
 O     -1.0681756008     -0.4242048520     -0.4448267937
 H     -3.3411483415     -0.6418088734     -0.4712688242
 H     -2.7640808914     -0.1733448261      1.2563443306
 O     -1.3183372993      1.7965995954      0.4335507847
 H     -2.6556768701      1.6670187081     -1.5056424815
 N     -6.3845472358      1.3808394636     -0.0690223605
 N     -1.1291068232      3.4133770042     -0.1816526259
 N     -0.8022165558     -2.0085929756     -0.1455535908
 O     -6.5967991199      2.4339881572      0.8946219159
 O     -0.0809523339      4.0395708541      0.6151019067
 O     -1.6181572207     -2.7559835302      0.8132243181
 O     -7.3325004524      0.7958886118     -1.0294481096
 O     -2.0280977181      4.2349457159     -0.9897670528
 O      0.5188295426     -2.2462608538     -0.5878622728
20
# ORCA AIMD Position Step 14, t=14.00 fs, E_Pot=-944.86800935 Hartree, Unit is Angstrom
 C     -2.6249643163      1.4171316247     -0.2933388805
 C     -4.0000886530      2.2698874019      0.5239130654
 O     -4.6965066330      1.1320139543     -0.4389699774
 H     -4.0055484605      3.1766792342      0.2026479104
 H     -4.2494599561      2.1947573993      1.5421723498
 C     -2.5756152462     -0.1257284697      0.1307345605
 O     -1.0749899246     -0.4054728433     -0.4514109447
 H     -3.4016522937     -0.6227419896     -0.4975387876
 H     -2.7363247153     -0.2141822088      1.2721797419
 O     -1.2930357260      1.7744250156      0.4387001823
 H     -2.6937109660      1.7138281789     -1.5100381980
 N     -6.3998095289      1.3805531206     -0.0688643067
 N     -1.1202708714      3.4236016845     -0.1871064862
 N     -0.7962779166     -2.0317076351     -0.1520943293
 O     -6.5957754267      2.4312643910      0.9079430042
 O     -0.0617250010      4.0306980742      0.6223078601
 O     -1.6330870934     -2.7658675916      0.8206327484
 O     -7.3356880578      0.8024335700     -1.0495597852
 O     -2.0401099076      4.2508023256     -0.9782983342
 O      0.5182562011     -2.2466290759     -0.5974391135
20
# ORCA AIMD Position Step 15, t=15.00 fs, E_Pot=-944.88090655 Hartree, Unit is Angstrom
 C     -2.6427640501      1.4239249434     -0.2883850432
 C     -3.9969603344      2.2727607439      0.5214560931
 O     -4.6800808204      1.1430150007     -0.4331172772
 H     -4.0877769152      3.2861198026      0.1673774814
 H     -4.2245977007      2.1707457470      1.6085884861
 C     -2.5829214860     -0.1392327438      0.1202641719
 O     -1.0836274494     -0.3877288093     -0.4569248175
 H     -3.4525147764     -0.6067791855     -0.5149131097
 H     -2.7035041067     -0.2581454941      1.2753798051
 O     -1.2684762394      1.7537161743      0.4419777018
 H     -2.7274527938      1.7527711723     -1.4826963323
 N     -6.4166854162      1.3812742674     -0.0697474652
 N     -1.1103068720      3.4370354940     -0.1910422356
 N     -0.7894209228     -2.0557236707     -0.1571862131
 O     -6.5944005848      2.4261557879      0.9193006619
 O     -0.0446053371      4.0203930414      0.6275742986
 O     -1.6463480893     -2.7741495755      0.8257686428
 O     -7.3367144981      0.8103500824     -1.0673200583
 O     -2.0503683790      4.2644169228     -0.9651264411
 O      0.5153841434     -2.2470582576     -0.6063561650
20
# ORCA AIMD Position Step 16, t=16.00 fs, E_Pot=-944.87080585 Hartree, Unit is Angstrom
 C     -2.6598081740      1.4322925653     -0.2817274218
 C     -3.9929528812      2.2713624704      0.5162323666
 O     -4.6657076178      1.1558369531     -0.4256020866
 H     -4.1731717928      3.4094620419      0.1248192281
 H     -4.1955850920      2.1421795515      1.6751045897
 C     -2.5900371216     -0.1523946958      0.1081062564
 O     -1.0940736400     -0.3712130761     -0.4613882868
 H     -3.4882522007     -0.5932699209     -0.5202858207
 H     -2.6676072820     -0.3036206139      1.2625770400
 O     -1.2450219452      1.7345638970      0.4432047706
 H     -2.7550559435      1.7820858885     -1.4261198181
 N     -6.4348757537      1.3830425016     -0.0716435348
 N     -1.0992815951      3.4534313073     -0.1933240769
 N     -0.7820315205     -2.0802257235     -0.1607654074
 O     -6.5927958163      2.4186318893      0.9285840581
 O     -0.0297038045      4.0087942610      0.6307951354
 O     -1.6577309744     -2.7808414388      0.8285207042
 O     -7.3356207601      0.8196523821     -1.0826040553
 O     -2.0587000416      4.2757590086     -0.9502492916
 O      0.5103313358     -2.2476798658     -0.6145710807
20
# ORCA AIMD Position Step 17, t=17.00 fs, E_Pot=-944.85147236 Hartree, Unit is Angstrom
 C     -2.6756972637      1.4420383824     -0.2727907555
 C     -3.9888706751      2.2686546012      0.5088862367
 O     -4.6535313383      1.1703394484     -0.4164772130
 H     -4.2546177071      3.5084298879      0.0900594573
 H     -4.1604547948      2.1131762974      1.7226941623
 C     -2.5969876237     -0.1649520652      0.0942699681
 O     -1.1062943825     -0.3560330080     -0.4648665035
 H     -3.5066618881     -0.5828892471     -0.5133569634
 H     -2.6309422844     -0.3492684534      1.2338252745
 O     -1.2229097522      1.7169620604      0.4422705995
 H     -2.7752297172      1.8019351820     -1.3485233141
 N     -6.4541026849      1.3858899175     -0.0745003713
 N     -1.0872879748      3.4725196771     -0.1938780777
 N     -0.7745327936     -2.1048848833     -0.1627917581
 O     -6.5910932595      2.4086908923      0.9357484167
 O     -0.0170281951      3.9960472215      0.6319266877
 O     -1.6670954603     -2.7860115792      0.8288389274
 O     -7.3324871280      0.8303551754     -1.0953766624
 O     -2.0649827002      4.2848763946     -0.9336529668
 O      0.5032873343     -2.2486313407     -0.6220901793
20
# ORCA AIMD Position Step 18, t=18.00 fs, E_Pot=-944.83550141 Hartree, Unit is Angstrom
 C     -2.6900093841      1.4526659728     -0.2604682556
 C     -3.9852450966      2.2656506788      0.5001946550
 O     -4.6436408553      1.1863773106     -0.4058284467
 H     -4.3266674917      3.5700062022      0.0685757722
 H     -4.1196099408      2.0868592759      1.7414761062
 C     -2.6035640254     -0.1765385318      0.0787563527
 O     -1.1202298732     -0.3422125456     -0.4674574499
 H     -3.5088623283     -0.5773946104     -0.4964881198
 H     -2.5958538482     -0.3941968946      1.1924556682
 O     -1.2022985364      1.7008283704      0.4391115245
 H     -2.7874775086      1.8154062597     -1.2658269224
 N     -6.4740913855      1.3898422822     -0.0782478456
 N     -1.0744524343      3.4940198659     -0.1926882269
 N     -0.7673940671     -2.1294209143     -0.1632327759
 O     -6.5894320970      2.3963557629      0.9407929192
 O     -0.0065110078      3.9823102881      0.6309750449
 O     -1.6743409946     -2.7897601557      0.8267108382
 O     -7.3274222659      0.8424700144     -1.1056622514
 O     -2.0691249731      4.2918648212     -0.9153158231
 O      0.4945038633     -2.2500517209     -0.6289555459
20
# ORCA AIMD Position Step 19, t=19.00 fs, E_Pot=-944.82793228 Hartree, Unit is Angstrom
 C     -2.7022977591      1.4633701738     -0.2431163794
 C     -3.9823716365      2.2626579418      0.4908183071
 O     -4.6361053643      1.2037747043     -0.3937856911
 H     -4.3856949893      3.5909135542      0.0620509546
 H     -4.0746637816      2.0655281686      1.7276087164
 C     -2.6093281653     -0.1866629227      0.0616175885
 O     -1.1357679883     -0.3297279468     -0.4692885887
 H     -3.4995074510     -0.5795026303     -0.4746420219
 H     -2.5644686520     -0.4380532834      1.1447087706
 O     -1.1833201598      1.6860422593      0.4337043482
 H     -2.7922031178      1.8289966318     -1.2016158329
 N     -6.4945180114      1.3949122649     -0.0827957634
 N     -1.0609593154      3.5176027391     -0.1897985996
 N     -0.7611345152     -2.1535643316     -0.1620553596
 O     -6.5879592306      2.3816920545      0.9437499701
 O      0.0019737377      3.9677779922      0.6279979926
 O     -1.6793852777     -2.7922043179      0.8221537189
 O     -7.3205701484      0.8559858071     -1.1135251568
 O     -2.0710556672      4.2968474463     -0.8952337318
 O      0.4842969670     -2.2520759747     -0.6352308031
20
# ORCA AIMD Position Step 20, t=20.00 fs, E_Pot=-944.83612044 Hartree, Unit is Angstrom
 C     -2.7121269256      1.4733179526     -0.2194761335
 C     -3.9804377751      2.2599558802      0.4812569746
 O     -4.6310200293      1.2222519086     -0.3805754884
 H     -4.4286551755      3.5703338727      0.0711213835
 H     -4.0279891300      2.0508265443      1.6820306752
 C     -2.6136602303     -0.1947317717      0.0430595074
 O     -1.1527134602     -0.3185261919     -0.4705183365
 H     -3.4865884251     -0.5926400135     -0.4549428109
 H     -2.5384517556     -0.4810331125      1.0985512813
 O     -1.1661074122      1.6724763866      0.4260747412
 H     -2.7898336168      1.8492263086     -1.1768884519
 N     -6.5149649513      1.4010878920     -0.0880255502
 N     -1.0470744970      3.5428391646     -0.1853249872
 N     -0.7563061775     -2.1770318973     -0.1592334324
 O     -6.5868328462      2.3648348353      0.9446929702
 O      0.0086175759      3.9527040700      0.6231232736
 O     -1.6821641269     -2.7934744218      0.8152243701
 O     -7.3121277686      0.8708444272     -1.1190744581
 O     -2.0707307283      4.2999742441     -0.8734499700
 O      0.4730466555     -2.2548266997     -0.6409917522
20
# ORCA AIMD Position Step 21, t=21.00 fs, E_Pot=-944.85615896 Hartree, Unit is Angstrom
 C     -2.7191789988      1.4822723124     -0.1902818585
 C     -3.9795226255      2.2578711981      0.4717988851
 O     -4.6285275590      1.2413661861     -0.3665632468
 H     -4.4530390139      3.5099932177      0.0955233872
 H     -3.9825828658      2.0435256261      1.6115679950
 C     -2.6159761387     -0.2001825168      0.0235295708
 O     -1.1707566025     -0.3085433508     -0.4713329616
 H     -3.4790332952     -0.6199106205     -0.4448270722
 H     -2.5189930062     -0.5234905776      1.0612009801
 O     -1.1508090361      1.6600242019      0.4163166110
 H     -2.7794418081      1.8752498612     -1.1916407252
 N     -6.5348861564      1.4083196921     -0.0937771803
 N     -1.0331706163      3.5691490060     -0.1794748229
 N     -0.7534525226     -2.1994993044     -0.1547731832
 O     -6.5862222547      2.3460225283      0.9437557498
 O      0.0136986978      3.9374218091      0.6165778116
 O     -1.6826468196     -2.7937169058      0.8060421932
 O     -7.3023677838      0.8869114606     -1.1224828684
 O     -2.0681537007      4.3014300449     -0.8500905810
 O      0.4611873169     -2.2584028211     -0.6463160355
20
# ORCA AIMD Position Step 22, t=22.00 fs, E_Pot=-944.87320324 Hartree, Unit is Angstrom
 C     -2.7231962109      1.4906252906     -0.1581571663
 C     -3.9796327295      2.2568941470      0.4623001941
 O     -4.6288038385      1.2605245513     -0.3522400468
 H     -4.4566678792      3.4135093318      0.1343451623
 H     -3.9415697243      2.0428994777      1.5309086140
 C     -2.6161607835     -0.2027701061      0.0036452057
 O     -1.1894942730     -0.2996978923     -0.4719383709
 H     -3.4814266209     -0.6618665833     -0.4487462478
 H     -2.5070717688     -0.5651799527      1.0361633140
 O     -1.1375598881      1.6485929463      0.4045872024
 H     -2.7598635869      1.8988099090     -1.2254562409
 N     -6.5536399678      1.4165269040     -0.0998516632
 N     -1.0197145440      3.5958332022     -0.1725564238
 N     -0.7530316683     -2.2206326735     -0.1487411820
 O     -6.5862995177      2.3255849355      0.9411541950
 O      0.0176178848      3.9223175000      0.6087025471
 O     -1.6808637399     -2.7931019024      0.7947971982
 O     -7.2916350805      0.9039855890     -1.1240181416
 O     -2.0633964033      4.3014466261     -0.8253432201
 O      0.4491547693     -2.2628751018     -0.6512819041
20
# ORCA AIMD Position Step 23, t=23.00 fs, E_Pot=-944.87501893 Hartree, Unit is Angstrom
 C     -2.7238413666      1.4987868207     -0.1259273263
 C     -3.9807014355      2.2575501085      0.4520486938
 O     -4.6320457014      1.2790356694     -0.3381756882
 H     -4.4384594148      3.2883069946      0.1853429306
 H     -3.9071218380      2.0459052004      1.4639087370
 C     -2.6148416057     -0.2027935915     -0.0159627962
 O     -1.2084862431     -0.2918841457     -0.4725445840
 H     -3.4903959473     -0.7146259950     -0.4662811603
 H     -2.5037423752     -0.6046595222      1.0220893893
 O     -1.1264494789      1.6380909006      0.3910735350
 H     -2.7316054549      1.9118154634     -1.2560159075
 N     -6.5705537947      1.4256202318     -0.1060286753
 N     -1.0072321188      3.6221575400     -0.1649635470
 N     -0.7553371787     -2.2401331146     -0.1412847881
 O     -6.5872313990      2.3038962944      0.9371911241
 O      0.0209155213      3.9077770258      0.5999387339
 O     -1.6769228094     -2.7918263638      0.7817365652
 O     -7.2803185616      0.9218338159     -1.1240554910
 O     -2.0566012025      4.3002997623     -0.7994023402
 O      0.4373116114     -2.2682921908     -0.6559644268
20
# ORCA AIMD Position Step 24, t=24.00 fs, E_Pot=-944.85198754 Hartree, Unit is Angstrom
 C     -2.7207067935      1.5068890447     -0.0957087444
 C     -3.9821674707      2.2591940688      0.4405835831
 O     -4.6384698561      1.2961721513     -0.3249656633
 H     -4.4042221743      3.1582403749      0.2414708213
 H     -3.8795305024      2.0479659858      1.4362191400
 C     -2.6131324577     -0.2009932235     -0.0347123654