
                                 *****************
                                 * O   R   C   A *
                                 *****************

                                            #,                                       
                                            ###                                      
                                            ####                                     
                                            #####                                    
                                            ######                                   
                                           ########,                                 
                                     ,,################,,,,,                         
                               ,,#################################,,                 
                          ,,##########################################,,             
                       ,#########################################, ''#####,          
                    ,#############################################,,   '####,        
                  ,##################################################,,,,####,       
                ,###########''''           ''''###############################       
              ,#####''   ,,,,##########,,,,          '''####'''          '####       
            ,##' ,,,,###########################,,,                        '##       
           ' ,,###''''                  '''############,,,                           
         ,,##''                                '''############,,,,        ,,,,,,###''
      ,#''                                            '''#######################'''  
     '                                                          ''''####''''         
             ,#######,   #######,   ,#######,      ##                                
            ,#'     '#,  ##    ##  ,#'     '#,    #''#        ######   ,####,        
            ##       ##  ##   ,#'  ##            #'  '#       #        #'  '#        
            ##       ##  #######   ##           ,######,      #####,   #    #        
            '#,     ,#'  ##    ##  '#,     ,#' ,#      #,         ##   #,  ,#        
             '#######'   ##     ##  '#######'  #'      '#     #####' # '####'        



                  #######################################################
                  #                        -***-                        #
                  #          Department of theory and spectroscopy      #
                  #    Directorship and core code : Frank Neese         #
                  #        Max Planck Institute fuer Kohlenforschung    #
                  #                Kaiser Wilhelm Platz 1               #
                  #                 D-45470 Muelheim/Ruhr               #
                  #                      Germany                        #
                  #                                                     #
                  #                  All rights reserved                #
                  #                        -***-                        #
                  #######################################################



                         Program Version 5.0.4 -  RELEASE  -

 With contributions from (in alphabetic order):
   Daniel Aravena         : Magnetic Suceptibility
   Michael Atanasov       : Ab Initio Ligand Field Theory (pilot matlab implementation)
   Alexander A. Auer      : GIAO ZORA, VPT2 properties, NMR spectrum
   Ute Becker             : Parallelization
   Giovanni Bistoni       : ED, misc. LED, open-shell LED, HFLD
   Martin Brehm           : Molecular dynamics
   Dmytro Bykov           : SCF Hessian
   Vijay G. Chilkuri      : MRCI spin determinant printing, contributions to CSF-ICE
   Dipayan Datta          : RHF DLPNO-CCSD density
   Achintya Kumar Dutta   : EOM-CC, STEOM-CC
   Dmitry Ganyushin       : Spin-Orbit,Spin-Spin,Magnetic field MRCI
   Miquel Garcia          : C-PCM and meta-GGA Hessian, CC/C-PCM, Gaussian charge scheme
   Yang Guo               : DLPNO-NEVPT2, F12-NEVPT2, CIM, IAO-localization
   Andreas Hansen         : Spin unrestricted coupled pair/coupled cluster methods
   Benjamin Helmich-Paris : MC-RPA, TRAH-SCF, COSX integrals
   Lee Huntington         : MR-EOM, pCC
   Robert Izsak           : Overlap fitted RIJCOSX, COSX-SCS-MP3, EOM
   Marcus Kettner         : VPT2
   Christian Kollmar      : KDIIS, OOCD, Brueckner-CCSD(T), CCSD density, CASPT2, CASPT2-K
   Simone Kossmann        : Meta GGA functionals, TD-DFT gradient, OOMP2, MP2 Hessian
   Martin Krupicka        : Initial AUTO-CI
   Lucas Lang             : DCDCAS
   Marvin Lechner         : AUTO-CI (C++ implementation), FIC-MRCC
   Dagmar Lenk            : GEPOL surface, SMD
   Dimitrios Liakos       : Extrapolation schemes; Compound Job, initial MDCI parallelization
   Dimitrios Manganas     : Further ROCIS development; embedding schemes
   Dimitrios Pantazis     : SARC Basis sets
   Anastasios Papadopoulos: AUTO-CI, single reference methods and gradients
   Taras Petrenko         : DFT Hessian,TD-DFT gradient, ASA, ECA, R-Raman, ABS, FL, XAS/XES, NRVS
   Peter Pinski           : DLPNO-MP2, DLPNO-MP2 Gradient
   Christoph Reimann      : Effective Core Potentials
   Marius Retegan         : Local ZFS, SOC
   Christoph Riplinger    : Optimizer, TS searches, QM/MM, DLPNO-CCSD(T), (RO)-DLPNO pert. Triples
   Tobias Risthaus        : Range-separated hybrids, TD-DFT gradient, RPA, STAB
   Michael Roemelt        : Original ROCIS implementation
   Masaaki Saitow         : Open-shell DLPNO-CCSD energy and density
   Barbara Sandhoefer     : DKH picture change effects
   Avijit Sen             : IP-ROCIS
   Kantharuban Sivalingam : CASSCF convergence, NEVPT2, FIC-MRCI
   Bernardo de Souza      : ESD, SOC TD-DFT
   Georgi Stoychev        : AutoAux, RI-MP2 NMR, DLPNO-MP2 response
   Willem Van den Heuvel  : Paramagnetic NMR
   Boris Wezisla          : Elementary symmetry handling
   Frank Wennmohs         : Technical directorship


 We gratefully acknowledge several colleagues who have allowed us to
 interface, adapt or use parts of their codes:
   Stefan Grimme, W. Hujo, H. Kruse, P. Pracht,  : VdW corrections, initial TS optimization,
                  C. Bannwarth, S. Ehlert          DFT functionals, gCP, sTDA/sTD-DF
   Ed Valeev, F. Pavosevic, A. Kumar             : LibInt (2-el integral package), F12 methods
   Garnet Chan, S. Sharma, J. Yang, R. Olivares  : DMRG
   Ulf Ekstrom                                   : XCFun DFT Library
   Mihaly Kallay                                 : mrcc  (arbitrary order and MRCC methods)
   Jiri Pittner, Ondrej Demel                    : Mk-CCSD
   Frank Weinhold                                : gennbo (NPA and NBO analysis)
   Christopher J. Cramer and Donald G. Truhlar   : smd solvation model
   Lars Goerigk                                  : TD-DFT with DH, B97 family of functionals
   V. Asgeirsson, H. Jonsson                     : NEB implementation
   FAccTs GmbH                                   : IRC, NEB, NEB-TS, DLPNO-Multilevel, CI-OPT
                                                   MM, QMMM, 2- and 3-layer-ONIOM, Crystal-QMMM,
                                                   LR-CPCM, SF, NACMEs, symmetry and pop. for TD-DFT,
                                                   nearIR, NL-DFT gradient (VV10), updates on ESD,
                                                   ML-optimized integration grids
   S Lehtola, MJT Oliveira, MAL Marques          : LibXC Library
   Liviu Ungur et al                             : ANISO software


 Your calculation uses the libint2 library for the computation of 2-el integrals
 For citations please refer to: http://libint.valeyev.net

 Your ORCA version has been built with support for libXC version: 5.1.0
 For citations please refer to: https://tddft.org/programs/libxc/

 This ORCA versions uses:
   CBLAS   interface :  Fast vector & matrix operations
   LAPACKE interface :  Fast linear algebra routines
   Shared memory     :  Shared parallel matrices


Your calculation utilizes the atom-pairwise dispersion correction
based on tight binding partial charges (D4)
Cite in your paper:
E.Caldeweyher, C.Bannwarth, S.Grimme, J.Chem.Phys., (2017), 147, 034112.
E.Caldeweyher, S.Ehlert, A.Hansen, H.Neugebauer, S.Grimme, J.Chem.Phys., (2018), in progress.
   

================================================================================

----- Orbital basis set information -----
Your calculation utilizes the basis: def2-SVP
   F. Weigend and R. Ahlrichs, Phys. Chem. Chem. Phys. 7, 3297 (2005).

----- AuxJ basis set information -----
Your calculation utilizes the auxiliary basis: def2/J
   F. Weigend, Phys. Chem. Chem. Phys. 8, 1057 (2006).

================================================================================
                                        WARNINGS
                       Please study these warnings very carefully!
================================================================================


WARNING: Geometry Optimization
  ===> : Switching off AutoStart
         For restart on a previous wavefunction, please use MOREAD

INFO   : the flag for use of the SHARK integral package has been found!

================================================================================
                                       INPUT FILE
================================================================================
NAME = a_opt.inp
|  1> !B3LYP DEF2-SVP OPT FREQ D4 SOSCF
|  2> 
|  3> * xyz 0 1
|  4>    C       -4.88767        2.95686        0.02707
|  5>    C       -6.15302        2.34938        0.01615
|  6>    C       -6.26360        0.95516       -0.00229
|  7>    C       -5.11296        0.16130       -0.00991
|  8>    C       -3.85004        0.76061        0.00090
|  9>    C       -3.73592        2.15454        0.01934
| 10>    H       -7.05088        2.95462        0.02191
| 11>    H       -7.24102        0.49030       -0.01066
| 12>    H       -5.19989       -0.91746       -0.02418
| 13>    H       -2.95968        0.14520       -0.00501
| 14>    H       -2.75274        2.60816        0.02759
| 15>    N       -4.77389        4.36869        0.04575
| 16>    H       -5.61485        4.96434        0.05152
| 17>    H       -3.84840        4.82195        0.05385
| 18> **                         ****END OF INPUT****
================================================================================

                       *****************************
                       * Geometry Optimization Run *
                       *****************************

Geometry optimization settings:
Update method            Update   .... BFGS
Choice of coordinates    CoordSys .... Z-matrix Internals
Initial Hessian          InHess   .... Almoef's Model

Convergence Tolerances:
Energy Change            TolE     ....  5.0000e-06 Eh
Max. Gradient            TolMAXG  ....  3.0000e-04 Eh/bohr
RMS Gradient             TolRMSG  ....  1.0000e-04 Eh/bohr
Max. Displacement        TolMAXD  ....  4.0000e-03 bohr
RMS Displacement         TolRMSD  ....  2.0000e-03 bohr
Strict Convergence                ....  False
------------------------------------------------------------------------------
                        ORCA OPTIMIZATION COORDINATE SETUP
------------------------------------------------------------------------------

The optimization will be done in new redundant internal coordinates
Making redundant internal coordinates   ...  (new redundants) done
Evaluating the initial hessian          ...  (Almloef) done
Evaluating the coordinates              ...  done
Calculating the B-matrix                .... done
Calculating the G-matrix                .... done
Diagonalizing the G-matrix              .... done
The first mode is                       ....   27
The number of degrees of freedom        ....   36

    -----------------------------------------------------------------
                    Redundant Internal Coordinates


    -----------------------------------------------------------------
         Definition                    Initial Value    Approx d2E/dq
    -----------------------------------------------------------------
      1. B(C   1,C   0)                  1.4037         0.594216   
      2. B(C   2,C   1)                  1.3987         0.605099   
      3. B(C   3,C   2)                  1.3979         0.606829   
      4. B(C   4,C   3)                  1.3979         0.606819   
      5. B(C   5,C   4)                  1.3987         0.605110   
      6. B(C   5,C   0)                  1.4037         0.594183   
      7. B(H   6,C   1)                  1.0828         0.369723   
      8. B(H   7,C   2)                  1.0824         0.370343   
      9. B(H   8,C   3)                  1.0824         0.370362   
     10. B(H   9,C   4)                  1.0824         0.370349   
     11. B(H  10,C   5)                  1.0828         0.369735   
     12. B(N  11,C   0)                  1.4165         0.507630   
     13. B(H  12,N  11)                  1.0306         0.401235   
     14. B(H  13,N  11)                  1.0306         0.401238   
     15. A(C   1,C   0,N  11)          120.2555         0.412953   
     16. A(C   5,C   0,N  11)          120.2553         0.412949   
     17. A(C   1,C   0,C   5)          119.4891         0.427490   
     18. A(C   0,C   1,H   6)          120.3670         0.351949   
     19. A(C   2,C   1,H   6)          119.4501         0.353031   
     20. A(C   0,C   1,C   2)          120.1828         0.428888   
     21. A(C   3,C   2,H   7)          119.9571         0.353302   
     22. A(C   1,C   2,H   7)          119.9734         0.353131   
     23. A(C   1,C   2,C   3)          120.0695         0.430507   
     24. A(C   2,C   3,C   4)          120.0065         0.430727   
     25. A(C   4,C   3,H   8)          119.9964         0.353304   
     26. A(C   2,C   3,H   8)          119.9972         0.353305   
     27. A(C   5,C   4,H   9)          119.9730         0.353133   
     28. A(C   3,C   4,H   9)          119.9574         0.353302   
     29. A(C   3,C   4,C   5)          120.0696         0.430508   
     30. A(C   0,C   5,H  10)          120.3666         0.351947   
     31. A(C   0,C   5,C   4)          120.1825         0.428885   
     32. A(C   4,C   5,H  10)          119.4509         0.353034   
     33. A(H  12,N  11,H  13)          118.5925         0.296057   
     34. A(C   0,N  11,H  13)          120.7038         0.342368   
     35. A(C   0,N  11,H  12)          120.7037         0.342368   
     36. D(H   6,C   1,C   0,C   5)   -179.9999         0.024317   
     37. D(C   2,C   1,C   0,C   5)     -0.0000         0.024317   
     38. D(C   2,C   1,C   0,N  11)   -179.9999         0.024317   
     39. D(H   6,C   1,C   0,N  11)      0.0003         0.024317   
     40. D(C   3,C   2,C   1,C   0)      0.0001         0.025265   
     41. D(C   3,C   2,C   1,H   6)    180.0000         0.025265   
     42. D(H   7,C   2,C   1,H   6)     -0.0006         0.025265   
     43. D(H   7,C   2,C   1,C   0)    179.9995         0.025265   
     44. D(H   8,C   3,C   2,H   7)      0.0006         0.025417   
     45. D(H   8,C   3,C   2,C   1)    179.9999         0.025417   
     46. D(C   4,C   3,C   2,H   7)   -179.9994         0.025417   
     47. D(C   4,C   3,C   2,C   1)     -0.0000         0.025417   
     48. D(H   9,C   4,C   3,C   2)    179.9999         0.025416   
     49. D(C   5,C   4,C   3,H   8)    179.9998         0.025416   
     50. D(C   5,C   4,C   3,C   2)     -0.0002         0.025416   
     51. D(H   9,C   4,C   3,H   8)     -0.0000         0.025416   
     52. D(H  10,C   5,C   4,H   9)     -0.0003         0.025265   
     53. D(C   0,C   5,C   4,H   9)   -179.9998         0.025265   
     54. D(C   0,C   5,C   4,C   3)      0.0003         0.025265   
     55. D(H  10,C   5,C   0,N  11)      0.0002         0.024314   
     56. D(H  10,C   5,C   0,C   1)   -179.9997         0.024314   
     57. D(H  10,C   5,C   4,C   3)    179.9998         0.025265   
     58. D(C   4,C   5,C   0,N  11)    179.9996         0.024314   
     59. D(C   4,C   5,C   0,C   1)     -0.0002         0.024314   
     60. D(H  13,N  11,C   0,C   5)      0.0004         0.020393   
     61. D(H  13,N  11,C   0,C   1)   -179.9998         0.020393   
     62. D(H  12,N  11,C   0,C   5)    179.9999         0.020393   
     63. D(H  12,N  11,C   0,C   1)     -0.0003         0.020393   
    -----------------------------------------------------------------

Number of atoms                         .... 14
Number of degrees of freedom            .... 63

         *************************************************************
         *                GEOMETRY OPTIMIZATION CYCLE   1            *
         *************************************************************
---------------------------------
CARTESIAN COORDINATES (ANGSTROEM)
---------------------------------
  C     -4.887670    2.956860    0.027070
  C     -6.153020    2.349380    0.016150
  C     -6.263600    0.955160   -0.002290
  C     -5.112960    0.161300   -0.009910
  C     -3.850040    0.760610    0.000900
  C     -3.735920    2.154540    0.019340
  H     -7.050880    2.954620    0.021910
  H     -7.241020    0.490300   -0.010660
  H     -5.199890   -0.917460   -0.024180
  H     -2.959680    0.145200   -0.005010
  H     -2.752740    2.608160    0.027590
  N     -4.773890    4.368690    0.045750
  H     -5.614850    4.964340    0.051520
  H     -3.848400    4.821950    0.053850

----------------------------
CARTESIAN COORDINATES (A.U.)
----------------------------
  NO LB      ZA    FRAG     MASS         X           Y           Z
   0 C     6.0000    0    12.011   -9.236358    5.587656    0.051155
   1 C     6.0000    0    12.011  -11.627523    4.439685    0.030519
   2 C     6.0000    0    12.011  -11.836489    1.804991   -0.004327
   3 C     6.0000    0    12.011   -9.662094    0.304813   -0.018727
   4 C     6.0000    0    12.011   -7.275521    1.437345    0.001701
   5 C     6.0000    0    12.011   -7.059866    4.071491    0.036547
   6 H     1.0000    0     1.008  -13.324232    5.583423    0.041404
   7 H     1.0000    0     1.008  -13.683545    0.926533   -0.020144
   8 H     1.0000    0     1.008   -9.826368   -1.733748   -0.045694
   9 H     1.0000    0     1.008   -5.592985    0.274388   -0.009468
  10 H     1.0000    0     1.008   -5.201925    4.928708    0.052138
  11 N     7.0000    0    14.007   -9.021345    8.255628    0.086455
  12 H     1.0000    0     1.008  -10.610529    9.381243    0.097359
  13 H     1.0000    0     1.008   -7.272422    9.112165    0.101762

--------------------------------
INTERNAL COORDINATES (ANGSTROEM)
--------------------------------
 C      0   0   0     0.000000000000     0.00000000     0.00000000
 C      1   0   0     1.403660150927     0.00000000     0.00000000
 C      2   1   0     1.398719907058   120.18283801     0.00000000
 C      3   2   1     1.397942836313   120.06948829     0.00000000
 C      4   3   2     1.397947158730   120.00645118     0.00000000
 C      5   4   3     1.398715215081   120.06955538     0.00000000
 H      2   1   3     1.082820952328   120.36704935   180.00016176
 H      3   2   1     1.082365341694   119.97341527   179.99951453
 H      4   3   2     1.082350957592   119.99718552   179.99994092
 H      5   4   3     1.082360996064   119.95744104   179.99993980
 H      6   5   4     1.082812116343   119.45085832   179.99981013
 N      1   2   3     1.416530543158   120.25554953   180.00013179
 H     12   1   2     1.030556129961   120.70374647     0.00000000
 H     12   1   2     1.030554209006   120.70379765   180.00023381

---------------------------
INTERNAL COORDINATES (A.U.)
---------------------------
 C      0   0   0     0.000000000000     0.00000000     0.00000000
 C      1   0   0     2.652533270350     0.00000000     0.00000000
 C      2   1   0     2.643197562403   120.18283801     0.00000000
 C      3   2   1     2.641729111509   120.06948829     0.00000000
 C      4   3   2     2.641737279692   120.00645118     0.00000000
 C      5   4   3     2.643188695852   120.06955538     0.00000000
 H      2   1   3     2.046235051971   120.36704935   180.00016176
 H      3   2   1     2.045374072649   119.97341527   179.99951453
 H      4   3   2     2.045346890636   119.99718552   179.99994092
 H      5   4   3     2.045365860599   119.95744104   179.99993980
 H      6   5   4     2.046218354381   119.45085832   179.99981013
 N      1   2   3     2.676854786904   120.25554953   180.00013179
 H     12   1   2     1.947468851260   120.70374647     0.00000000
 H     12   1   2     1.947465221181   120.70379765   180.00023381

---------------------
BASIS SET INFORMATION
---------------------
There are 3 groups of distinct atoms

 Group   1 Type C   : 7s4p1d contracted to 3s2p1d pattern {511/31/1}
 Group   2 Type H   : 4s1p contracted to 2s1p pattern {31/1}
 Group   3 Type N   : 7s4p1d contracted to 3s2p1d pattern {511/31/1}

Atom   0C    basis set group =>   1
Atom   1C    basis set group =>   1
Atom   2C    basis set group =>   1
Atom   3C    basis set group =>   1
Atom   4C    basis set group =>   1
Atom   5C    basis set group =>   1
Atom   6H    basis set group =>   2
Atom   7H    basis set group =>   2
Atom   8H    basis set group =>   2
Atom   9H    basis set group =>   2
Atom  10H    basis set group =>   2
Atom  11N    basis set group =>   3
Atom  12H    basis set group =>   2
Atom  13H    basis set group =>   2
---------------------------------
AUXILIARY/J BASIS SET INFORMATION
---------------------------------
There are 3 groups of distinct atoms

 Group   1 Type C   : 12s5p4d2f1g contracted to 6s4p3d1f1g pattern {711111/2111/211/2/1}
 Group   2 Type H   : 5s2p1d contracted to 3s1p1d pattern {311/2/1}
 Group   3 Type N   : 12s5p4d2f1g contracted to 6s4p3d1f1g pattern {711111/2111/211/2/1}

Atom   0C    basis set group =>   1
Atom   1C    basis set group =>   1
Atom   2C    basis set group =>   1
Atom   3C    basis set group =>   1
Atom   4C    basis set group =>   1
Atom   5C    basis set group =>   1
Atom   6H    basis set group =>   2
Atom   7H    basis set group =>   2
Atom   8H    basis set group =>   2
Atom   9H    basis set group =>   2
Atom  10H    basis set group =>   2
Atom  11N    basis set group =>   3
Atom  12H    basis set group =>   2
Atom  13H    basis set group =>   2
------------------------------------------------------------------------------
                           ORCA GTO INTEGRAL CALCULATION
                           -- RI-GTO INTEGRALS CHOSEN --
------------------------------------------------------------------------------
------------------------------------------------------------------------------
                   ___                                                        
                  /   \      - P O W E R E D   B Y -                         
                 /     \                                                     
                 |  |  |   _    _      __       _____    __    __             
                 |  |  |  | |  | |    /  \     |  _  \  |  |  /  |          
                  \  \/   | |  | |   /    \    | | | |  |  | /  /          
                 / \  \   | |__| |  /  /\  \   | |_| |  |  |/  /          
                |  |  |   |  __  | /  /__\  \  |    /   |      \           
                |  |  |   | |  | | |   __   |  |    \   |  |\   \          
                \     /   | |  | | |  |  |  |  | |\  \  |  | \   \       
                 \___/    |_|  |_| |__|  |__|  |_| \__\ |__|  \__/        
                                                                              
                      - O R C A' S   B I G   F R I E N D -                    
                                      &                                       
                       - I N T E G R A L  F E E D E R -                       
                                                                              
 v1 FN, 2020, v2 2021                                                         
------------------------------------------------------------------------------


Reading SHARK input file a_opt.SHARKINP.tmp ... ok
----------------------
SHARK INTEGRAL PACKAGE
----------------------

Number of atoms                             ...     14
Number of basis functions                   ...    133
Number of shells                            ...     63
Maximum angular momentum                    ...      2
Integral batch strategy                     ... SHARK/LIBINT Hybrid
RI-J (if used) integral strategy            ... SPLIT-RIJ (Revised 2003 algorithm where possible)
Printlevel                                  ...      1
Contraction scheme used                     ... SEGMENTED contraction
Coulomb Range Separation                    ... NOT USED
Exchange Range Separation                   ... NOT USED
Finite Nucleus Model                        ... NOT USED
Auxiliary Coulomb fitting basis             ... AVAILABLE
   # of basis functions in Aux-J            ...    420
   # of shells in Aux-J                     ...    140
   Maximum angular momentum in Aux-J        ...      4
Auxiliary J/K fitting basis                 ... NOT available
Auxiliary Correlation fitting basis         ... NOT available
Auxiliary 'external' fitting basis          ... NOT available
Integral threshold                          ...     2.500000e-11
Primitive cut-off                           ...     2.500000e-12
Primitive pair pre-selection threshold      ...     2.500000e-12

Calculating pre-screening integrals         ... done (  0.0 sec) Dimension = 63
Organizing shell pair data                  ... done (  0.0 sec)
Shell pair information
Total number of shell pairs                 ...      2016
Shell pairs after pre-screening             ...      1943
Total number of primitive shell pairs       ...      7252
Primitive shell pairs kept                  ...      5299
          la=0 lb=0:    606 shell pairs
          la=1 lb=0:    707 shell pairs
          la=1 lb=1:    222 shell pairs
          la=2 lb=0:    238 shell pairs
          la=2 lb=1:    142 shell pairs
          la=2 lb=2:     28 shell pairs

Calculating one electron integrals          ... done (  0.0 sec)
Calculating RI/J V-Matrix + Cholesky decomp.... done (  0.0 sec)
Calculating Nuclear repulsion               ... done (  0.0 sec) ENN=    269.994508015467 Eh

SHARK setup successfully completed in   0.3 seconds

Maximum memory used throughout the entire GTOINT-calculation: 16.6 MB
-------------------------------------------------------------------------------
                                 ORCA SCF
-------------------------------------------------------------------------------

------------
SCF SETTINGS
------------
Hamiltonian:
 Density Functional     Method          .... DFT(GTOs)
 Exchange Functional    Exchange        .... B88
   X-Alpha parameter    XAlpha          ....  0.666667
   Becke's b parameter  XBeta           ....  0.004200
 Correlation Functional Correlation     .... LYP
 LDA part of GGA corr.  LDAOpt          .... VWN-5
 Gradients option       PostSCFGGA      .... off
 Hybrid DFT is turned on
   Fraction HF Exchange ScalHFX         ....  0.200000
   Scaling of DF-GGA-X  ScalDFX         ....  0.720000
   Scaling of DF-GGA-C  ScalDFC         ....  0.810000
   Scaling of DF-LDA-C  ScalLDAC        ....  1.000000
   Perturbative correction              ....  0.000000
   Density functional embedding theory  .... OFF
   NL short-range parameter             ....  4.800000
 RI-approximation to the Coulomb term is turned on
   Number of AuxJ basis functions       .... 420
   RIJ-COSX (HFX calculated with COS-X)).... on


General Settings:
 Integral files         IntName         .... a_opt
 Hartree-Fock type      HFTyp           .... RHF
 Total Charge           Charge          ....    0
 Multiplicity           Mult            ....    1
 Number of Electrons    NEL             ....   50
 Basis Dimension        Dim             ....  133
 Nuclear Repulsion      ENuc            ....    269.9945080155 Eh

Convergence Acceleration:
 DIIS                   CNVDIIS         .... on
   Start iteration      DIISMaxIt       ....    12
   Startup error        DIISStart       ....  0.200000
   # of expansion vecs  DIISMaxEq       ....     5
   Bias factor          DIISBfac        ....   1.050
   Max. coefficient     DIISMaxC        ....  10.000
 Trust-Rad. Augm. Hess. CNVTRAH         .... auto
   Auto Start mean grad. ratio tolernc. ....  1.125000
   Auto Start start iteration           ....    20
   Auto Start num. interpolation iter.  ....    10
   Max. Number of Micro iterations      ....    16
   Max. Number of Macro iterations      .... Maxiter - #DIIS iter
   Number of Davidson start vectors     ....     2
   Converg. threshold I  (grad. norm)   ....   1.000e-05
   Converg. threshold II (energy diff.) ....   1.000e-08
   Grad. Scal. Fac. for Micro threshold ....   0.100
   Minimum threshold for Micro iter.    ....   0.010
   NR start threshold (gradient norm)   ....   0.001
   Initial trust radius                 ....   0.400
   Minimum AH scaling param. (alpha)    ....   1.000
   Maximum AH scaling param. (alpha)    .... 1000.000
   Orbital update algorithm             .... Taylor
   White noise on init. David. guess    .... on
   Maximum white noise                  ....   0.010
   Quad. conv. algorithm                .... NR
 SOSCF                  CNVSOSCF        .... on
   Start iteration      SOSCFMaxIt      ....   150
   Startup grad/error   SOSCFStart      ....  0.003300
 Level Shifting         CNVShift        .... on
   Level shift para.    LevelShift      ....    0.2500
   Turn off err/grad.   ShiftErr        ....    0.0010
 Zerner damping         CNVZerner       .... off
 Static damping         CNVDamp         .... on
   Fraction old density DampFac         ....    0.7000
   Max. Damping (<1)    DampMax         ....    0.9800
   Min. Damping (>=0)   DampMin         ....    0.0000
   Turn off err/grad.   DampErr         ....    0.1000
 Fernandez-Rico         CNVRico         .... off

SCF Procedure:
 Maximum # iterations   MaxIter         ....   125
 SCF integral mode      SCFMode         .... Direct
   Integral package                     .... SHARK and LIBINT hybrid scheme
 Reset frequency        DirectResetFreq ....    20
 Integral Threshold     Thresh          ....  2.500e-11 Eh
 Primitive CutOff       TCut            ....  2.500e-12 Eh

Convergence Tolerance:
 Convergence Check Mode ConvCheckMode   .... Total+1el-Energy
 Convergence forced     ConvForced      .... 0
 Energy Change          TolE            ....  1.000e-08 Eh
 1-El. energy change                    ....  1.000e-05 Eh
 Orbital Gradient       TolG            ....  1.000e-05
 Orbital Rotation angle TolX            ....  1.000e-05
 DIIS Error             TolErr          ....  5.000e-07


Diagonalization of the overlap matrix:
Smallest eigenvalue                        ... 2.901e-04
Time for diagonalization                   ...    0.007 sec
Threshold for overlap eigenvalues          ... 1.000e-08
Number of eigenvalues below threshold      ... 0
Time for construction of square roots      ...    0.003 sec
Total time needed                          ...    0.010 sec

Time for model grid setup =    0.221 sec

------------------------------
INITIAL GUESS: MODEL POTENTIAL
------------------------------
Loading Hartree-Fock densities                     ... done
Calculating cut-offs                               ... done
Initializing the effective Hamiltonian             ... done
Setting up the integral package (SHARK)            ... done
Starting the Coulomb interaction                   ... done (   0.2 sec)
Reading the grid                                   ... done
Mapping shells                                     ... done
Starting the XC term evaluation                    ... done (   0.3 sec)
  promolecular density results
     # of electrons  =     49.995039056
     EX              =    -39.482066299
     EC              =     -1.656760118
     EX+EC           =    -41.138826417
Transforming the Hamiltonian                       ... done (   0.0 sec)
Diagonalizing the Hamiltonian                      ... done (   0.0 sec)
Back transforming the eigenvectors                 ... done (   0.0 sec)
Now organizing SCF variables                       ... done
                      ------------------
                      INITIAL GUESS DONE (   0.7 sec)
                      ------------------
-------------------
DFT GRID GENERATION
-------------------

General Integration Accuracy     IntAcc      ... 4.388
Radial Grid Type                 RadialGrid  ... OptM3 with GC (2021)
Angular Grid (max. ang.)         AngularGrid ... 4 (Lebedev-302)
Angular grid pruning method      GridPruning ... 4 (adaptive)
Weight generation scheme         WeightScheme... Becke
Basis function cutoff            BFCut       ... 1.0000e-11
Integration weight cutoff        WCut        ... 1.0000e-14
Angular grids for H and He will be reduced by one unit
Partially contracted basis set               ... off
Rotationally invariant grid construction     ... off

Total number of grid points                  ...    64722
Total number of batches                      ...     1020
Average number of points per batch           ...       63
Average number of grid points per atom       ...     4623
Time for grid setup =    0.976 sec

--------------------
COSX GRID GENERATION
--------------------

GRIDX 1
-------
General Integration Accuracy     IntAcc      ... 3.816
Radial Grid Type                 RadialGrid  ... OptM3 with GC (2021)
Angular Grid (max. ang.)         AngularGrid ... 1 (Lebedev-50)
Angular grid pruning method      GridPruning ... 4 (adaptive)
Weight generation scheme         WeightScheme... Becke
Basis function cutoff            BFCut       ... 1.0000e-11
Integration weight cutoff        WCut        ... 1.0000e-14
Angular grids for H and He will be reduced by one unit
Partially contracted basis set               ... on
Rotationally invariant grid construction     ... off

Total number of grid points                  ...     8307
Total number of batches                      ...      134
Average number of points per batch           ...       61
Average number of grid points per atom       ...      593
UseSFitting                                  ... on

GRIDX 2
-------
General Integration Accuracy     IntAcc      ... 4.020
Radial Grid Type                 RadialGrid  ... OptM3 with GC (2021)
Angular Grid (max. ang.)         AngularGrid ... 2 (Lebedev-110)
Angular grid pruning method      GridPruning ... 4 (adaptive)
Weight generation scheme         WeightScheme... Becke
Basis function cutoff            BFCut       ... 1.0000e-11
Integration weight cutoff        WCut        ... 1.0000e-14
Angular grids for H and He will be reduced by one unit
Partially contracted basis set               ... on
Rotationally invariant grid construction     ... off

Total number of grid points                  ...    17994
Total number of batches                      ...      288
Average number of points per batch           ...       62
Average number of grid points per atom       ...     1285
UseSFitting                                  ... on

GRIDX 3
-------
General Integration Accuracy     IntAcc      ... 4.338
Radial Grid Type                 RadialGrid  ... OptM3 with GC (2021)
Angular Grid (max. ang.)         AngularGrid ... 3 (Lebedev-194)
Angular grid pruning method      GridPruning ... 4 (adaptive)
Weight generation scheme         WeightScheme... Becke
Basis function cutoff            BFCut       ... 1.0000e-11
Integration weight cutoff        WCut        ... 1.0000e-14
Angular grids for H and He will be reduced by one unit
Partially contracted basis set               ... on
Rotationally invariant grid construction     ... off

Total number of grid points                  ...    39557
Total number of batches                      ...      624
Average number of points per batch           ...       63
Average number of grid points per atom       ...     2826
UseSFitting                                  ... on

Time for X-Grid setup             =    0.952 sec

--------------
SCF ITERATIONS
--------------
ITER       Energy         Delta-E        Max-DP      RMS-DP      [F,P]     Damp
               ***  Starting incremental Fock matrix formation  ***
  0   -287.0201435662   0.000000000000 0.07874339  0.00315106  0.2283814 0.7000
  1   -287.1084445951  -0.088301028893 0.04627168  0.00220558  0.1113406 0.7000
                               ***Turning on DIIS***
  2   -287.1461673370  -0.037722741964 0.06220861  0.00388201  0.0397617 0.0000
  3   -287.1996378741  -0.053470537023 0.03410428  0.00126985  0.0568743 0.0000
  4   -287.2138139937  -0.014176119645 0.00691546  0.00036417  0.0091956 0.0000
  5   -287.2145388144  -0.000724820734 0.00388048  0.00013573  0.0051696 0.0000
                      *** Initiating the SOSCF procedure ***
                           *** Shutting down DIIS ***
                      *** Re-Reading the Fockian *** 
                      *** Removing any level shift *** 
ITER      Energy       Delta-E        Grad      Rot      Max-DP    RMS-DP
  6   -287.21459561  -0.0000567911  0.000248  0.000248  0.001398  0.000071
               *** Restarting incremental Fock matrix formation ***
  7   -287.21461334  -0.0000177389  0.000090  0.000355  0.000555  0.000022
  8   -287.21461324   0.0000001079  0.000160  0.000287  0.000193  0.000008
  9   -287.21461352  -0.0000002856  0.000022  0.000075  0.000070  0.000003
 10   -287.21461351   0.0000000088  0.000031  0.000049  0.000049  0.000002
 11   -287.21461353  -0.0000000155  0.000004  0.000012  0.000017  0.000000
 12   -287.21461353   0.0000000024  0.000005  0.000006  0.000011  0.000000
                 **** Energy Check signals convergence ****
              ***Rediagonalizing the Fockian in SOSCF/NRSCF***

               *****************************************************
               *                     SUCCESS                       *
               *           SCF CONVERGED AFTER  13 CYCLES          *
               *****************************************************

Old exchange energy                            =     -8.023101348 Eh
New exchange energy                            =     -8.023123995 Eh
Exchange energy change after final integration =     -0.000022647 Eh
Total energy after final integration           =   -287.214636176 Eh
Final COS-X integration done in                =     7.228 sec

----------------
TOTAL SCF ENERGY
----------------

Total Energy       :         -287.21463618 Eh           -7815.50758 eV

Components:
Nuclear Repulsion  :          269.99450802 Eh            7346.92407 eV
Electronic Energy  :         -557.20914419 Eh          -15162.43166 eV
One Electron Energy:         -921.60938427 Eh          -25078.26630 eV
Two Electron Energy:          364.40024008 Eh            9915.83464 eV
Max COSX asymmetry :            0.00000264 Eh               0.00007 eV

Virial components:
Potential Energy   :         -571.25415338 Eh          -15544.61579 eV
Kinetic Energy     :          284.03951721 Eh            7729.10820 eV
Virial Ratio       :            2.01117844


DFT components:
N(Alpha)           :       25.000004098761 electrons
N(Beta)            :       25.000004098761 electrons
N(Total)           :       50.000008197522 electrons
E(X)               :      -31.857002552122 Eh       
E(C)               :       -1.962210084798 Eh       
E(XC)              :      -33.819212636919 Eh       
DFET-embed. en.    :        0.000000000000 Eh       

---------------
SCF CONVERGENCE
---------------

  Last Energy change         ...   -3.0880e-09  Tolerance :   1.0000e-08
  Last MAX-Density change    ...    2.2204e-15  Tolerance :   1.0000e-07
  Last RMS-Density change    ...    4.8732e-17  Tolerance :   5.0000e-09
  Last Orbital Gradient      ...    1.8780e-07  Tolerance :   1.0000e-05
  Last Orbital Rotation      ...    3.8876e-07  Tolerance :   1.0000e-05

             **** THE GBW FILE WAS UPDATED (a_opt.gbw) ****
             **** DENSITY a_opt.scfp WAS UPDATED ****
             **** ENERGY FILE WAS UPDATED (a_opt.en.tmp) ****
             **** THE GBW FILE WAS UPDATED (a_opt.gbw) ****
             **** DENSITY a_opt.scfp WAS UPDATED ****
----------------
ORBITAL ENERGIES
----------------

  NO   OCC          E(Eh)            E(eV) 
   0   2.0000     -14.329174      -389.9166 
   1   2.0000     -10.222458      -278.1672 
   2   2.0000     -10.177754      -276.9508 
   3   2.0000     -10.177736      -276.9503 
   4   2.0000     -10.172432      -276.8059 
   5   2.0000     -10.172430      -276.8059 
   6   2.0000     -10.165837      -276.6265 
   7   2.0000      -0.887707       -24.1557 
   8   2.0000      -0.815647       -22.1949 
   9   2.0000      -0.726360       -19.7653 
  10   2.0000      -0.707306       -19.2468 
  11   2.0000      -0.598085       -16.2747 
  12   2.0000      -0.583632       -15.8814 
  13   2.0000      -0.515704       -14.0330 
  14   2.0000      -0.501137       -13.6366 
  15   2.0000      -0.465043       -12.6545 
  16   2.0000      -0.423801       -11.5322 
  17   2.0000      -0.423751       -11.5309 
  18   2.0000      -0.410335       -11.1658 
  19   2.0000      -0.373191       -10.1551 
  20   2.0000      -0.347599        -9.4587 
  21   2.0000      -0.337166        -9.1748 
  22   2.0000      -0.298721        -8.1286 
  23   2.0000      -0.243273        -6.6198 
  24   2.0000      -0.194088        -5.2814 
  25   0.0000       0.002707         0.0737 
  26   0.0000       0.023315         0.6344 
  27   0.0000       0.053645         1.4598 
  28   0.0000       0.076915         2.0930 
  29   0.0000       0.090521         2.4632 
  30   0.0000       0.126197         3.4340 
  31   0.0000       0.127595         3.4720 
  32   0.0000       0.162863         4.4317 
  33   0.0000       0.165886         4.5140 
  34   0.0000       0.168784         4.5929 
  35   0.0000       0.263139         7.1604 
  36   0.0000       0.299006         8.1364 
  37   0.0000       0.303537         8.2597 
  38   0.0000       0.304525         8.2866 
  39   0.0000       0.329212         8.9583 
  40   0.0000       0.373948        10.1756 
  41   0.0000       0.415157        11.2970 
  42   0.0000       0.420536        11.4434 
  43   0.0000       0.431142        11.7320 
  44   0.0000       0.451088        12.2747 
  45   0.0000       0.483767        13.1640 
  46   0.0000       0.503920        13.7124 
  47   0.0000       0.513134        13.9631 
  48   0.0000       0.525061        14.2876 
  49   0.0000       0.535526        14.5724 
  50   0.0000       0.549896        14.9634 
  51   0.0000       0.550087        14.9686 
  52   0.0000       0.556184        15.1345 
  53   0.0000       0.611422        16.6377 
  54   0.0000       0.625791        17.0286 
  55   0.0000       0.648866        17.6565 
  56   0.0000       0.667059        18.1516 
  57   0.0000       0.682103        18.5610 
  58   0.0000       0.698780        19.0148 
  59   0.0000       0.701509        19.0890 
  60   0.0000       0.722457        19.6591 
  61   0.0000       0.728635        19.8272 
  62   0.0000       0.747973        20.3534 
  63   0.0000       0.759767        20.6743 
  64   0.0000       0.777572        21.1588 
  65   0.0000       0.790065        21.4988 
  66   0.0000       0.821360        22.3504 
  67   0.0000       0.831496        22.6262 
  68   0.0000       0.885456        24.0945 
  69   0.0000       0.930504        25.3203 
  70   0.0000       0.982800        26.7433 
  71   0.0000       1.068325        29.0706 
  72   0.0000       1.153433        31.3865 
  73   0.0000       1.187995        32.3270 
  74   0.0000       1.240631        33.7593 
  75   0.0000       1.258848        34.2550 
  76   0.0000       1.273470        34.6529 
  77   0.0000       1.276292        34.7297 
  78   0.0000       1.279288        34.8112 
  79   0.0000       1.282300        34.8932 
  80   0.0000       1.319917        35.9168 
  81   0.0000       1.359454        36.9926 
  82   0.0000       1.407077        38.2885 
  83   0.0000       1.502506        40.8853 
  84   0.0000       1.637127        44.5485 
  85   0.0000       1.676329        45.6152 
  86   0.0000       1.688432        45.9446 
  87   0.0000       1.723003        46.8853 
  88   0.0000       1.748677        47.5839 
  89   0.0000       1.758765        47.8584 
  90   0.0000       1.759053        47.8663 
  91   0.0000       1.764101        48.0036 
  92   0.0000       1.776558        48.3426 
  93   0.0000       1.792680        48.7813 
  94   0.0000       1.798040        48.9272 
  95   0.0000       1.826837        49.7108 
  96   0.0000       1.854264        50.4571 
  97   0.0000       1.888153        51.3792 
  98   0.0000       1.919529        52.2330 
  99   0.0000       1.971418        53.6450 
 100   0.0000       1.998983        54.3951 
 101   0.0000       2.007426        54.6248 
 102   0.0000       2.048202        55.7344 
 103   0.0000       2.110095        57.4186 
 104   0.0000       2.128412        57.9170 
 105   0.0000       2.148877        58.4739 
 106   0.0000       2.158528        58.7365 
 107   0.0000       2.180976        59.3474 
 108   0.0000       2.226747        60.5929 
 109   0.0000       2.250685        61.2443 
 110   0.0000       2.285942        62.2036 
 111   0.0000       2.316714        63.0410 
 112   0.0000       2.365036        64.3559 
 113   0.0000       2.368721        64.4562 
 114   0.0000       2.370825        64.5134 
 115   0.0000       2.500582        68.0443 
 116   0.0000       2.566685        69.8430 
 117   0.0000       2.608331        70.9763 
 118   0.0000       2.616742        71.2052 
 119   0.0000       2.693484        73.2934 
 120   0.0000       2.694829        73.3300 
 121   0.0000       2.752162        74.8901 
 122   0.0000       2.755466        74.9800 
 123   0.0000       2.803552        76.2885 
 124   0.0000       2.861960        77.8779 
 125   0.0000       2.883158        78.4547 
 126   0.0000       2.931397        79.7674 
 127   0.0000       3.095068        84.2211 
 128   0.0000       3.123969        85.0075 
 129   0.0000       3.188710        86.7692 
 130   0.0000       3.221778        87.6690 
 131   0.0000       3.486347        94.8683 
 132   0.0000       3.665541        99.7444 

                    ********************************
                    * MULLIKEN POPULATION ANALYSIS *
                    ********************************

-----------------------
MULLIKEN ATOMIC CHARGES
-----------------------
   0 C :    0.127235
   1 C :   -0.031596
   2 C :    0.020485
   3 C :    0.011553
   4 C :    0.020210
   5 C :   -0.031114
   6 H :   -0.053781
   7 H :   -0.028350
   8 H :   -0.033979
   9 H :   -0.028157
  10 H :   -0.054137
  11 N :   -0.149195
  12 H :    0.115396
  13 H :    0.115430
Sum of atomic charges:    0.0000000

--------------------------------
MULLIKEN REDUCED ORBITAL CHARGES
--------------------------------
  0 C s       :     2.968143  s :     2.968143
      pz      :     0.948518  p :     2.845276
      px      :     1.017736
      py      :     0.879022
      dz2     :     0.004248  d :     0.059346
      dxz     :     0.006817
      dyz     :     0.015034
      dx2y2   :     0.018793
      dxy     :     0.014455
  1 C s       :     3.220777  s :     3.220777
      pz      :     1.072265  p :     2.778275
      px      :     0.840487
      py      :     0.865524
      dz2     :     0.002631  d :     0.032544
      dxz     :     0.003270
      dyz     :     0.004795
      dx2y2   :     0.009420
      dxy     :     0.012428
  2 C s       :     3.160395  s :     3.160395
      pz      :     0.977013  p :     2.783132
      px      :     0.863443
      py      :     0.942676
      dz2     :     0.002537  d :     0.035988
      dxz     :     0.003142
      dyz     :     0.006864
      dx2y2   :     0.011643
      dxy     :     0.011802
  3 C s       :     3.143905  s :     3.143905
      pz      :     1.042697  p :     2.810198
      px      :     0.951797
      py      :     0.815703
      dz2     :     0.002527  d :     0.034344
      dxz     :     0.005994
      dyz     :     0.002288
      dx2y2   :     0.012912
      dxy     :     0.010624
  4 C s       :     3.160554  s :     3.160554
      pz      :     0.977029  p :     2.783245
      px      :     0.881192
      py      :     0.925025
      dz2     :     0.002538  d :     0.035990
      dxz     :     0.003897
      dyz     :     0.006109
      dx2y2   :     0.010825
      dxy     :     0.012621
  5 C s       :     3.220574  s :     3.220574
      pz      :     1.072264  p :     2.777997
      px      :     0.813392
      py      :     0.892341
      dz2     :     0.002630  d :     0.032543
      dxz     :     0.002779
      dyz     :     0.005287
      dx2y2   :     0.009568
      dxy     :     0.012280
  6 H s       :     1.030363  s :     1.030363
      pz      :     0.005513  p :     0.023419
      px      :     0.011183
      py      :     0.006722
  7 H s       :     1.005150  s :     1.005150
      pz      :     0.004844  p :     0.023200
      px      :     0.012702
      py      :     0.005654
  8 H s       :     1.010601  s :     1.010601
      pz      :     0.005356  p :     0.023378
      px      :     0.003460
      py      :     0.014563
  9 H s       :     1.004959  s :     1.004959
      pz      :     0.004844  p :     0.023198
      px      :     0.011132
      py      :     0.007222
 10 H s       :     1.030714  s :     1.030714
      pz      :     0.005513  p :     0.023423
      px      :     0.012685
      py      :     0.005225
 11 N s       :     3.317314  s :     3.317314
      pz      :     1.789058  p :     3.818515
      px      :     0.984391
      py      :     1.045066
      dz2     :     0.001718  d :     0.013366
      dxz     :     0.000042
      dyz     :     0.002149
      dx2y2   :     0.003876
      dxy     :     0.005581
 12 H s       :     0.841340  s :     0.841340
      pz      :     0.013179  p :     0.043264
      px      :     0.018037
      py      :     0.012049
 13 H s       :     0.841304  s :     0.841304
      pz      :     0.013182  p :     0.043266
      px      :     0.020385
      py      :     0.009699


                     *******************************
                     * LOEWDIN POPULATION ANALYSIS *
                     *******************************

----------------------
LOEWDIN ATOMIC CHARGES
----------------------
   0 C :    0.038170
   1 C :   -0.068723
   2 C :   -0.014900
   3 C :   -0.062694
   4 C :   -0.014930
   5 C :   -0.068677
   6 H :    0.017136
   7 H :    0.023073
   8 H :    0.018837
   9 H :    0.023109
  10 H :    0.017080
  11 N :   -0.061267
  12 H :    0.076895
  13 H :    0.076892

-------------------------------
LOEWDIN REDUCED ORBITAL CHARGES
-------------------------------
  0 C s       :     2.840979  s :     2.840979
      pz      :     0.942120  p :     2.979730
      px      :     1.096220
      py      :     0.941390
      dz2     :     0.009122  d :     0.141121
      dxz     :     0.014138
      dyz     :     0.030971
      dx2y2   :     0.049242
      dxy     :     0.037648
  1 C s       :     2.856452  s :     2.856452
      pz      :     1.048333  p :     3.125557
      px      :     1.024752
      py      :     1.052472
      dz2     :     0.006335  d :     0.086713
      dxz     :     0.006255
      dyz     :     0.009898
      dx2y2   :     0.028776
      dxy     :     0.035449
  2 C s       :     2.859330  s :     2.859330
      pz      :     0.958885  p :     3.063202
      px      :     1.044608
      py      :     1.059709
      dz2     :     0.006093  d :     0.092368
      dxz     :     0.005995
      dyz     :     0.014733
      dx2y2   :     0.032720
      dxy     :     0.032828
  3 C s       :     2.855556  s :     2.855556
      pz      :     1.023384  p :     3.117318
      px      :     1.060662
      py      :     1.033272
      dz2     :     0.006231  d :     0.089820
      dxz     :     0.012951
      dyz     :     0.003933
      dx2y2   :     0.035917
      dxy     :     0.030787
  4 C s       :     2.859323  s :     2.859323
      pz      :     0.958894  p :     3.063242
      px      :     1.049485
      py      :     1.054863
      dz2     :     0.006094  d :     0.092365
      dxz     :     0.007772
      dyz     :     0.012955
      dx2y2   :     0.030919
      dxy     :     0.034625
  5 C s       :     2.856442  s :     2.856442
      pz      :     1.048340  p :     3.125519
      px      :     1.023412
      py      :     1.053767
      dz2     :     0.006335  d :     0.086716
      dxz     :     0.005086
      dyz     :     0.011067
      dx2y2   :     0.029265
      dxy     :     0.034963
  6 H s       :     0.913185  s :     0.913185
      pz      :     0.017076  p :     0.069678
      px      :     0.032453
      py      :     0.020150
  7 H s       :     0.909219  s :     0.909219
      pz      :     0.014473  p :     0.067708
      px      :     0.036232
      py      :     0.017003
  8 H s       :     0.912130  s :     0.912130
      pz      :     0.016507  p :     0.069033
      px      :     0.011567
      py      :     0.040959
  9 H s       :     0.909180  s :     0.909180
      pz      :     0.014473  p :     0.067711
      px      :     0.032040
      py      :     0.021198
 10 H s       :     0.913243  s :     0.913243
      pz      :     0.017077  p :     0.069677
      px      :     0.036421
      py      :     0.016179
 11 N s       :     3.045025  s :     3.045025
      pz      :     1.718806  p :     3.979982
      px      :     1.132997
      py      :     1.128180
      dz2     :     0.002539  d :     0.036260
      dxz     :     0.000060
      dyz     :     0.004054
      dx2y2   :     0.012470
      dxy     :     0.017138
 12 H s       :     0.805080  s :     0.805080
      pz      :     0.040864  p :     0.118025
      px      :     0.046872
      py      :     0.030289
 13 H s       :     0.805078  s :     0.805078
      pz      :     0.040868  p :     0.118031
      px      :     0.053834
      py      :     0.023329


                      *****************************
                      * MAYER POPULATION ANALYSIS *
                      *****************************

  NA   - Mulliken gross atomic population
  ZA   - Total nuclear charge
  QA   - Mulliken gross atomic charge
  VA   - Mayer's total valence
  BVA  - Mayer's bonded valence
  FA   - Mayer's free valence

  ATOM       NA         ZA         QA         VA         BVA        FA
  0 C      5.8728     6.0000     0.1272     4.0253     4.0253     0.0000
  1 C      6.0316     6.0000    -0.0316     3.7948     3.7948    -0.0000
  2 C      5.9795     6.0000     0.0205     3.8673     3.8673    -0.0000
  3 C      5.9884     6.0000     0.0116     3.8234     3.8234     0.0000
  4 C      5.9798     6.0000     0.0202     3.8671     3.8671     0.0000
  5 C      6.0311     6.0000    -0.0311     3.7950     3.7950    -0.0000
  6 H      1.0538     1.0000    -0.0538     0.9844     0.9844     0.0000
  7 H      1.0284     1.0000    -0.0284     0.9759     0.9759    -0.0000
  8 H      1.0340     1.0000    -0.0340     0.9765     0.9765     0.0000
  9 H      1.0282     1.0000    -0.0282     0.9759     0.9759     0.0000
 10 H      1.0541     1.0000    -0.0541     0.9844     0.9844    -0.0000
 11 N      7.1492     7.0000    -0.1492     3.1530     3.1530     0.0000
 12 H      0.8846     1.0000     0.1154     0.9977     0.9977     0.0000
 13 H      0.8846     1.0000     0.1154     0.9976     0.9976     0.0000

  Mayer bond orders larger than 0.100000
B(  0-C ,  1-C ) :   1.3293 B(  0-C ,  5-C ) :   1.3296 B(  0-C , 11-N ) :   1.1976 
B(  1-C ,  2-C ) :   1.3952 B(  1-C ,  6-H ) :   0.9884 B(  2-C ,  3-C ) :   1.3785 
B(  2-C ,  7-H ) :   0.9817 B(  3-C ,  4-C ) :   1.3784 B(  3-C ,  8-H ) :   0.9868 
B(  4-C ,  5-C ) :   1.3952 B(  4-C ,  9-H ) :   0.9817 B(  5-C , 10-H ) :   0.9883 
B( 11-N , 12-H ) :   0.9473 B( 11-N , 13-H ) :   0.9473 

-------
TIMINGS
-------

Total SCF time: 0 days 0 hours 0 min 58 sec 

Total time                  ....      58.079 sec
Sum of individual times     ....      57.614 sec  ( 99.2%)

Fock matrix formation       ....      54.805 sec  ( 94.4%)
  Split-RI-J                ....       3.674 sec  (  6.7% of F)
  Chain of spheres X        ....      40.656 sec  ( 74.2% of F)
  XC integration            ....      10.371 sec  ( 18.9% of F)
    Basis function eval.    ....       4.028 sec  ( 38.8% of XC)
    Density eval.           ....       2.764 sec  ( 26.7% of XC)
    XC-Functional eval.     ....       0.877 sec  (  8.5% of XC)
    XC-Potential eval.      ....       1.996 sec  ( 19.2% of XC)
Diagonalization             ....       0.036 sec  (  0.1%)
Density matrix formation    ....       0.008 sec  (  0.0%)
Population analysis         ....       0.071 sec  (  0.1%)
Initial guess               ....       0.445 sec  (  0.8%)
Orbital Transformation      ....       0.000 sec  (  0.0%)
Orbital Orthonormalization  ....       0.000 sec  (  0.0%)
DIIS solution               ....       0.064 sec  (  0.1%)
SOSCF solution              ....       0.036 sec  (  0.1%)
Grid generation             ....       2.149 sec  (  3.7%)

Maximum memory used throughout the entire SCF-calculation: 62.6 MB


-------------------------------------------------------------------------------
                          DFT DISPERSION CORRECTION                            
                                                                               
                                 DFTD4 V2.5                                    
-------------------------------------------------------------------------------
The B3LYP functional is recognized
Active option DFTDOPT                   ...         5   

Starting D4
-------------------------   ----------------
Dispersion correction           -0.020928739
-------------------------   ----------------


-------------------------   --------------------
FINAL SINGLE POINT ENERGY      -287.235564914789
-------------------------   --------------------

------------------------------------------------------------------------------
                         ORCA SCF GRADIENT CALCULATION
------------------------------------------------------------------------------

 ... reading COSX grid (gridx3)
Gradient of the Kohn-Sham DFT energy:
Kohn-Sham wavefunction type      ... RKS
Hartree-Fock exchange scaling    ...    0.200
Number of operators              ...    1
Number of atoms                  ...   14
Basis set dimensions             ...  133
Integral neglect threshold       ... 2.5e-11
Integral primitive cutoff        ... 2.5e-12
SHARK Integral package           ... ON

Nuc. rep. gradient       (SHARK) ... done (  0.0 sec)
HCore & Overlap gradient (SHARK) ... done (  0.1 sec)
RI-J gradient            (SHARK) ... done (  0.8 sec)
COSX-gradient                    ... done (  8.4 sec)
Exchange-correlation gradient    ... done
Dispersion correction            ... Starting D4


------------------- 
Dispersion Gradient 
------------------- 
   1  :    0.000027274    0.000338440    0.000004477
   2  :   -0.000424276    0.000105869    0.000000374
   3  :   -0.000457834   -0.000348729   -0.000005633
   4  :   -0.000041626   -0.000516518   -0.000006833
   5  :    0.000396079   -0.000417560   -0.000004504
   6  :    0.000435754    0.000036542    0.000001509
   7  :   -0.000189350    0.000072551    0.000000497
   8  :   -0.000166851   -0.000087764   -0.000001539
   9  :   -0.000014392   -0.000178586   -0.000002362
  10  :    0.000150643   -0.000113355   -0.000001120
  11  :    0.000198525    0.000041286    0.000001009
  12  :    0.000054101    0.000671347    0.000008882
  13  :   -0.000087060    0.000206543    0.000002486
  14  :    0.000119012    0.000189933    0.000002758

  |G| =    0.001473348

done

------------------
CARTESIAN GRADIENT
------------------

   1   C   :   -0.002979877   -0.036596414   -0.000486437
   2   C   :   -0.000953170    0.011107821    0.000148910
   3   C   :   -0.011080936   -0.007838586   -0.000130619
   4   C   :   -0.000060282   -0.000935360   -0.000011781
   5   C   :    0.009709582   -0.009472064   -0.000104934
   6   C   :    0.002712254    0.010841531    0.000151161
   7   H   :    0.005314326   -0.005572323   -0.000060370
   8   H   :    0.007082461    0.002535279    0.000051835
   9   H   :    0.000610763    0.007421844    0.000095245
  10   H   :   -0.006602259    0.003622697    0.000033793
  11   H   :   -0.006131465   -0.004631901   -0.000072642
  12   N   :    0.000719697    0.010198374    0.000130043
  13   H   :   -0.015762122    0.011004378    0.000106553
  14   H   :    0.017330026    0.008321044    0.000147947

Difference to translation invariance:
           :   -0.0000910006    0.0000063181   -0.0000012964

Difference to rotation invariance:
           :   -0.0000148856   -0.0000193575    0.0010055206

Norm of the cartesian gradient     ...    0.0556559823
RMS gradient                       ...    0.0085879045
MAX gradient                       ...    0.0365964144

-------
TIMINGS
-------

Total SCF gradient time            ...       14.585 sec

One electron gradient       ....       0.149 sec  (  1.0%)
RI-J Coulomb gradient       ....       0.850 sec  (  5.8%)
COSX gradient               ....       8.430 sec  ( 57.8%)
XC gradient                 ....       4.582 sec  ( 31.4%)

Maximum memory used throughout the entire SCFGRAD-calculation: 49.8 MB
------------------------------------------------------------------------------
                         ORCA GEOMETRY RELAXATION STEP
------------------------------------------------------------------------------

Reading the OPT-File                    .... done
Getting information on internals        .... done
Copying old internal coords+grads       .... done
Making the new internal coordinates     .... (new redundants).... done
Validating the new internal coordinates .... (new redundants).... done
Calculating the B-matrix                .... done
Calculating the G,G- and P matrices     .... done
Transforming gradient to internals      .... done
Projecting the internal gradient        .... done
Number of atoms                         ....  14
Number of internal coordinates          ....  63
Current Energy                          ....  -287.235564915 Eh
Current gradient norm                   ....     0.055655982 Eh/bohr
Maximum allowed component of the step   ....  0.300
Current trust radius                    ....  0.300
Evaluating the initial hessian          ....  (Almloef) done
Projecting the Hessian                  .... done
Forming the augmented Hessian           .... done
Diagonalizing the augmented Hessian     .... done
Last element of RFO vector              ....  0.994864023
Lowest eigenvalues of augmented Hessian:
 -0.004507444  0.020392772  0.020392773  0.023155412  0.024436989
Length of the computed step             ....  0.101742985
The final length of the internal step   ....  0.101742985
Converting the step to cartesian space:
 Initial RMS(Int)=    0.0128184113
Transforming coordinates:
 Iter   0:  RMS(Cart)=    0.0195165726 RMS(Int)=    2.0944180569
 Iter   1:  RMS(Cart)=    0.0000173717 RMS(Int)=    0.0000116457
 Iter   2:  RMS(Cart)=    0.0000001533 RMS(Int)=    0.0000001122
 Iter   3:  RMS(Cart)=    0.0000000025 RMS(Int)=    0.0000000017
done
Storing new coordinates                 .... done

                                .--------------------.
          ----------------------|Geometry convergence|-------------------------
          Item                value                   Tolerance       Converged
          ---------------------------------------------------------------------
          RMS gradient        0.0056300477            0.0001000000      NO
          MAX gradient        0.0296148650            0.0003000000      NO
          RMS step            0.0128184113            0.0020000000      NO
          MAX step            0.0578259577            0.0040000000      NO
          ........................................................
          Max(Bonds)      0.0306      Max(Angles)    0.53
          Max(Dihed)        0.01      Max(Improp)    0.00
          ---------------------------------------------------------------------

The optimization has not yet converged - more geometry cycles are needed


    ---------------------------------------------------------------------------
                         Redundant Internal Coordinates
                            (Angstroem and degrees)

        Definition                    Value    dE/dq     Step     New-Value
    ----------------------------------------------------------------------------
     1. B(C   1,C   0)                1.4037 -0.003118  0.0028    1.4065   
     2. B(C   2,C   1)                1.3987  0.002328 -0.0020    1.3967   
     3. B(C   3,C   2)                1.3979 -0.000610  0.0005    1.3984   
     4. B(C   4,C   3)                1.3979 -0.000619  0.0005    1.3984   
     5. B(C   5,C   4)                1.3987  0.002344 -0.0020    1.3967   
     6. B(C   5,C   0)                1.4037 -0.003073  0.0028    1.4064   
     7. B(H   6,C   1)                1.0828 -0.007525  0.0106    1.0935   
     8. B(H   7,C   2)                1.0824 -0.007488  0.0106    1.0929   
     9. B(H   8,C   3)                1.0824 -0.007448  0.0105    1.0929   
    10. B(H   9,C   4)                1.0824 -0.007488  0.0106    1.0929   
    11. B(H  10,C   5)                1.0828 -0.007505  0.0106    1.0934   
    12. B(N  11,C   0)                1.4165  0.029615 -0.0306    1.3859   
    13. B(H  12,N  11)                1.0306  0.019207 -0.0251    1.0055   
    14. B(H  13,N  11)                1.0306  0.019240 -0.0251    1.0055   
    15. A(C   1,C   0,N  11)          120.26 -0.001327    0.17    120.43   
    16. A(C   5,C   0,N  11)          120.26 -0.001344    0.17    120.43   
    17. A(C   1,C   0,C   5)          119.49  0.002671   -0.35    119.14   
    18. A(C   0,C   1,H   6)          120.37  0.001814   -0.29    120.08   
    19. A(C   2,C   1,H   6)          119.45 -0.001532    0.25    119.70   
    20. A(C   0,C   1,C   2)          120.18 -0.000282    0.05    120.23   
    21. A(C   3,C   2,H   7)          119.96  0.000677   -0.07    119.88   
    22. A(C   1,C   2,H   7)          119.97  0.002192   -0.32    119.66   
    23. A(C   1,C   2,C   3)          120.07 -0.002869    0.39    120.46   
    24. A(C   2,C   3,C   4)          120.01  0.003646   -0.53    119.48   
    25. A(C   4,C   3,H   8)          120.00 -0.001826    0.27    120.26   
    26. A(C   2,C   3,H   8)          120.00 -0.001819    0.26    120.26   
    27. A(C   5,C   4,H   9)          119.97  0.002238   -0.32    119.65   
    28. A(C   3,C   4,H   9)          119.96  0.000632   -0.07    119.89   
    29. A(C   3,C   4,C   5)          120.07 -0.002871    0.39    120.46   
    30. A(C   0,C   5,H  10)          120.37  0.001838   -0.29    120.07   
    31. A(C   0,C   5,C   4)          120.18 -0.000295    0.05    120.23   
    32. A(C   4,C   5,H  10)          119.45 -0.001543    0.25    119.70   
    33. A(H  12,N  11,H  13)          118.59  0.000182   -0.03    118.56   
    34. A(C   0,N  11,H  13)          120.70 -0.000139    0.02    120.73   
    35. A(C   0,N  11,H  12)          120.70 -0.000043    0.01    120.71   
    36. D(H   6,C   1,C   0,C   5)   -180.00 -0.000001    0.00   -180.00   
    37. D(C   2,C   1,C   0,C   5)     -0.00 -0.000003    0.01      0.01   
    38. D(C   2,C   1,C   0,N  11)   -180.00 -0.000004    0.01   -179.99   
    39. D(H   6,C   1,C   0,N  11)      0.00 -0.000001    0.00      0.00   
    40. D(C   3,C   2,C   1,C   0)      0.00  0.000001   -0.00     -0.00   
    41. D(C   3,C   2,C   1,H   6)    180.00 -0.000002    0.00    180.00   
    42. D(H   7,C   2,C   1,H   6)     -0.00 -0.000001    0.00      0.00   
    43. D(H   7,C   2,C   1,C   0)    180.00  0.000001   -0.00    180.00   
    44. D(H   8,C   3,C   2,H   7)      0.00  0.000001   -0.00     -0.00   
    45. D(H   8,C   3,C   2,C   1)    180.00  0.000001   -0.00    180.00   
    46. D(C   4,C   3,C   2,H   7)   -180.00  0.000001   -0.00   -180.00   
    47. D(C   4,C   3,C   2,C   1)     -0.00  0.000002   -0.00     -0.00   
    48. D(H   9,C   4,C   3,C   2)    180.00 -0.000002    0.00    180.00   
    49. D(C   5,C   4,C   3,H   8)    180.00 -0.000001    0.00    180.00   
    50. D(C   5,C   4,C   3,C   2)     -0.00 -0.000001    0.00      0.00   
    51. D(H   9,C   4,C   3,H   8)     -0.00 -0.000002    0.00      0.00   
    52. D(H  10,C   5,C   4,H   9)     -0.00  0.000001   -0.00     -0.00   
    53. D(C   0,C   5,C   4,H   9)   -180.00 -0.000000    0.00   -180.00   
    54. D(C   0,C   5,C   4,C   3)      0.00 -0.000001    0.00      0.00   
    55. D(H  10,C   5,C   0,N  11)      0.00  0.000003   -0.01     -0.01   
    56. D(H  10,C   5,C   0,C   1)   -180.00  0.000002   -0.00   -180.00   
    57. D(H  10,C   5,C   4,C   3)    180.00 -0.000000    0.00    180.00   
    58. D(C   4,C   5,C   0,N  11)    180.00  0.000004   -0.01    179.99   
    59. D(C   4,C   5,C   0,C   1)     -0.00  0.000003   -0.01     -0.01   
    60. D(H  13,N  11,C   0,C   5)      0.00  0.000001   -0.00     -0.00   
    61. D(H  13,N  11,C   0,C   1)   -180.00  0.000001   -0.00   -180.00   
    62. D(H  12,N  11,C   0,C   5)    180.00  0.000001   -0.00    180.00   
    63. D(H  12,N  11,C   0,C   1)     -0.00  0.000001   -0.00     -0.00   
    ----------------------------------------------------------------------------

         *************************************************************
         *                GEOMETRY OPTIMIZATION CYCLE   2            *
         *************************************************************
---------------------------------
CARTESIAN COORDINATES (ANGSTROEM)
---------------------------------
  C     -4.886664    2.968762    0.027194
  C     -6.152718    2.356283    0.016165
  C     -6.260079    0.963837   -0.002184
  C     -5.112733    0.164385   -0.009815
  C     -3.852145    0.769711    0.001010
  C     -3.735096    2.161357    0.019360
  H     -7.058120    2.969368    0.022004
  H     -7.248606    0.497731   -0.010600
  H     -5.200533   -0.924852   -0.024134
  H     -2.950961    0.151382   -0.004926
  H     -2.743246    2.621510    0.027668
  N     -4.775334    4.350092    0.045558
  H     -5.595762    4.931391    0.051198
  H     -3.872565    4.792693    0.053533

----------------------------
CARTESIAN COORDINATES (A.U.)
----------------------------
  NO LB      ZA    FRAG     MASS         X           Y           Z
   0 C     6.0000    0    12.011   -9.234458    5.610148    0.051389
   1 C     6.0000    0    12.011  -11.626953    4.452730    0.030547
   2 C     6.0000    0    12.011  -11.829835    1.821389   -0.004128
   3 C     6.0000    0    12.011   -9.661665    0.310643   -0.018548
   4 C     6.0000    0    12.011   -7.279499    1.454544    0.001909
   5 C     6.0000    0    12.011   -7.058308    4.084372    0.036586
   6 H     1.0000    0     1.008  -13.337913    5.611292    0.041581
   7 H     1.0000    0     1.008  -13.697880    0.940576   -0.020032
   8 H     1.0000    0     1.008   -9.827583   -1.747718   -0.045607
   9 H     1.0000    0     1.008   -5.576508    0.286071   -0.009309
  10 H     1.0000    0     1.008   -5.183983    4.953935    0.052286
  11 N     7.0000    0    14.007   -9.024073    8.220482    0.086093
  12 H     1.0000    0     1.008  -10.574457    9.318978    0.096750
  13 H     1.0000    0     1.008   -7.318087    9.056876    0.101162

--------------------------------
INTERNAL COORDINATES (ANGSTROEM)
--------------------------------
 C      0   0   0     0.000000000000     0.00000000     0.00000000
 C      1   0   0     1.406465310358     0.00000000     0.00000000
 C      2   1   0     1.396699378052   120.22813853     0.00000000
 C      3   2   1     1.398422451279   120.46060436     0.00000000
 C      4   3   2     1.398434244958   119.47759132     0.00000000
 C      5   4   3     1.396679674936   120.46062301     0.00000000
 H      2   1   3     1.093461491447   120.07587579   179.99562590
 H      3   2   1     1.092936733647   119.65641562   179.99768920
 H      4   3   2     1.092864216480   120.26106766   179.99734489
 H      5   4   3     1.092931321509   119.89054556   180.00405335
 H      6   5   4     1.093423873601   119.69877085   180.00002251
 N      1   2   3     1.385930364274   120.42711432   180.00719518
 H     12   1   2     1.005505796540   120.71231603     0.00000000
 H     12   1   2     1.005460683581   120.72815953   179.99780032

---------------------------
INTERNAL COORDINATES (A.U.)
---------------------------
 C      0   0   0     0.000000000000     0.00000000     0.00000000
 C      1   0   0     2.657834253437     0.00000000     0.00000000
 C      2   1   0     2.639379315937   120.22813853     0.00000000
 C      3   2   1     2.642635452444   120.46060436     0.00000000
 C      4   3   2     2.642657739267   119.47759132     0.00000000
 C      5   4   3     2.639342082442   120.46062301     0.00000000
 H      2   1   3     2.066342756824   120.07587579   179.99562590
 H      3   2   1     2.065351108296   119.65641562   179.99768920
 H      4   3   2     2.065214070709   120.26106766   179.99734489
 H      5   4   3     2.065340880837   119.89054556   180.00405335
 H      6   5   4     2.066271669396   119.69877085   180.00002251
 N      1   2   3     2.619028829163   120.42711432   180.00719518
 H     12   1   2     1.900130581531   120.71231603     0.00000000
 H     12   1   2     1.900045330394   120.72815953   179.99780032

------------------------------------------------------------------------------
                   ___                                                        
                  /   \      - P O W E R E D   B Y -                         
                 /     \                                                     
                 |  |  |   _    _      __       _____    __    __             
                 |  |  |  | |  | |    /  \     |  _  \  |  |  /  |          
                  \  \/   | |  | |   /    \    | | | |  |  | /  /          
                 / \  \   | |__| |  /  /\  \   | |_| |  |  |/  /          
                |  |  |   |  __  | /  /__\  \  |    /   |      \           
                |  |  |   | |  | | |   __   |  |    \   |  |\   \          
                \     /   | |  | | |  |  |  |  | |\  \  |  | \   \       
                 \___/    |_|  |_| |__|  |__|  |_| \__\ |__|  \__/        
                                                                              
                      - O R C A' S   B I G   F R I E N D -                    
                                      &                                       
                       - I N T E G R A L  F E E D E R -                       
                                                                              
 v1 FN, 2020, v2 2021                                                         
------------------------------------------------------------------------------


Reading SHARK input file a_opt.SHARKINP.tmp ... ok
----------------------
SHARK INTEGRAL PACKAGE
----------------------

Number of atoms                             ...     14
Number of basis functions                   ...    133
Number of shells                            ...     63
Maximum angular momentum                    ...      2
Integral batch strategy                     ... SHARK/LIBINT Hybrid
RI-J (if used) integral strategy            ... SPLIT-RIJ (Revised 2003 algorithm where possible)
Printlevel                                  ...      1
Contraction scheme used                     ... SEGMENTED contraction
Coulomb Range Separation                    ... NOT USED
Exchange Range Separation                   ... NOT USED
Finite Nucleus Model                        ... NOT USED
Auxiliary Coulomb fitting basis             ... AVAILABLE
   # of basis functions in Aux-J            ...    420
   # of shells in Aux-J                     ...    140
   Maximum angular momentum in Aux-J        ...      4
Auxiliary J/K fitting basis                 ... NOT available
Auxiliary Correlation fitting basis         ... NOT available
Auxiliary 'external' fitting basis          ... NOT available
Integral threshold                          ...     2.500000e-11
Primitive cut-off                           ...     2.500000e-12
Primitive pair pre-selection threshold      ...     2.500000e-12

Calculating pre-screening integrals         ... done (  0.0 sec) Dimension = 63
Organizing shell pair data                  ... done (  0.0 sec)
Shell pair information
Total number of shell pairs                 ...      2016
Shell pairs after pre-screening             ...      1943
Total number of primitive shell pairs       ...      7252
Primitive shell pairs kept                  ...      5308
          la=0 lb=0:    606 shell pairs
          la=1 lb=0:    707 shell pairs
          la=1 lb=1:    222 shell pairs
          la=2 lb=0:    238 shell pairs
          la=2 lb=1:    142 shell pairs
          la=2 lb=2:     28 shell pairs

Calculating one electron integrals          ... done (  0.0 sec)
Calculating RI/J V-Matrix + Cholesky decomp.... done (  0.0 sec)
Calculating Nuclear repulsion               ... done (  0.0 sec) ENN=    270.716484619455 Eh

SHARK setup successfully completed in   0.3 seconds

Maximum memory used throughout the entire GTOINT-calculation: 16.6 MB

Diagonalization of the overlap matrix:
Smallest eigenvalue                        ... 2.906e-04
Time for diagonalization                   ...    0.006 sec
Threshold for overlap eigenvalues          ... 1.000e-08
Number of eigenvalues below threshold      ... 0
Time for construction of square roots      ...    0.003 sec
Total time needed                          ...    0.009 sec

-------------------
DFT GRID GENERATION
-------------------

General Integration Accuracy     IntAcc      ... 4.388
[...]
     13       0.033688  -0.033276   0.032133   0.056339   0.048086   0.172245
     14       0.000350  -0.000475   0.000500   0.000546   0.000734   0.002546
     15      -0.020309  -0.005068   0.012793   0.044529  -0.008166   0.134964
     16      -0.078899   0.002796  -0.045412  -0.102332   0.041334  -0.246236
     17      -0.001073   0.000026  -0.000559  -0.001225   0.000517  -0.002904
     18       0.237775  -0.124064  -0.276233   0.234647   0.273084  -0.128987
     19       0.449675  -0.177275  -0.421628   0.314751   0.383935  -0.230446
     20       0.006411  -0.002588  -0.006143   0.004643   0.005643  -0.003403
     21       0.012384  -0.203958  -0.215831  -0.047673  -0.167927   0.046984
     22      -0.161681   0.446726   0.441389   0.369517   0.400195  -0.051752
     23      -0.002074   0.005305   0.005200   0.004661   0.004775  -0.000607
     24       0.530560   0.643588   0.002268   0.002638  -0.303937   0.549285
     25      -0.042770  -0.051992   0.014962   0.030074   0.024522  -0.044392
     26       0.000712   0.000855   0.000191   0.000388  -0.000405   0.000708
     27       0.037598  -0.273089   0.283228   0.106032  -0.229571   0.054512
     28       0.157141  -0.409027   0.400669   0.356913  -0.367992   0.042798
     29       0.002110  -0.005943   0.005843   0.004841  -0.005286   0.000756
     30       0.162573  -0.094682   0.204921  -0.181104   0.208279  -0.089815
     31      -0.481594   0.196129  -0.460143   0.348337  -0.423240   0.247096
     32      -0.005890   0.002330  -0.005522   0.004096  -0.005021   0.003086
     33      -0.057080   0.002618  -0.000302   0.012215   0.040934   0.035202
     34       0.004592  -0.000214  -0.003283   0.151198  -0.003332  -0.002969
     35      -0.000082   0.000003  -0.000044   0.002018   0.000058   0.000052
     36       0.099799  -0.002599  -0.006171   0.131096  -0.068517  -0.108465
     37       0.223570  -0.008361  -0.011788   0.342128  -0.151766  -0.194922
     38       0.003205  -0.000112  -0.000177   0.004821  -0.002179  -0.002878
     39       0.062934  -0.001234   0.004336  -0.074864  -0.043518  -0.075917
     40      -0.236611   0.008655  -0.013004   0.358797   0.160677   0.209017
     41      -0.002958   0.000106  -0.000152   0.004502   0.002012   0.002583
                 30         31         32         33         34         35    
      0       0.150347   0.015656  -0.003960  -0.351968   0.023102   0.000654
      1      -0.012300   0.192758  -0.047769   0.028576   0.285808   0.003499
      2       0.000196   0.002565  -0.000642  -0.000462   0.003805   0.000048
      3      -0.017713  -0.093578  -0.004457   0.205157  -0.101296  -0.047022
      4       0.149445  -0.045813  -0.032074   0.070261  -0.285154   0.030293
      5       0.001901  -0.000826  -0.000426   0.001414  -0.003956   0.000282
      6      -0.032676   0.091401  -0.012021  -0.205404  -0.051381   0.031682
      7      -0.163046  -0.133268   0.056103   0.108624   0.260071   0.012746
      8      -0.002189  -0.001507   0.000698   0.000920   0.003247   0.000242
      9       0.134189   0.009021  -0.002494   0.368144  -0.009633  -0.001207
     10      -0.010897   0.111635  -0.032485  -0.029643  -0.118288  -0.014231
     11       0.000174   0.001465  -0.000426   0.000486  -0.001552  -0.000187
     12      -0.005994  -0.111492   0.020701  -0.220255   0.092452  -0.024532
     13       0.166353  -0.116666   0.053393  -0.074447   0.248551   0.014938
     14       0.002141  -0.001772   0.000741  -0.001479   0.003436   0.000138
     15      -0.041569   0.084959  -0.000621   0.191333   0.054255   0.039198
     16      -0.144595  -0.060415  -0.032446  -0.102260  -0.297747   0.016839
     17      -0.001974  -0.000593  -0.000422  -0.000896  -0.003747   0.000308
     18      -0.259054   0.153632   0.022433  -0.008382   0.259401   0.540274
     19      -0.170500   0.354770   0.007237  -0.268747   0.241613  -0.363368
     20      -0.002850   0.004995   0.000147  -0.003543   0.003800  -0.003443
     21      -0.249230  -0.146533   0.044202  -0.057859   0.181000  -0.373699
     22       0.253302   0.400690  -0.062616  -0.258989  -0.220683  -0.170824
     23       0.002666   0.004828  -0.000703  -0.003510  -0.002401  -0.003123
     24      -0.597010   0.010634  -0.003145  -0.413887  -0.010727   0.014583
     25       0.048076   0.135721  -0.037434   0.033516  -0.134943   0.180666
     26      -0.000799   0.001785  -0.000495  -0.000546  -0.001788   0.002367
     27      -0.286735   0.208257  -0.053618  -0.015642  -0.213810   0.287138
     28      -0.210603   0.371732  -0.054551   0.265268  -0.188880  -0.192138
     29      -0.003377   0.005292  -0.000832   0.003404  -0.002921  -0.001840
     30      -0.228299  -0.095197  -0.020942   0.034725  -0.217468  -0.452371
     31       0.209371   0.375131   0.010813   0.266797   0.280242  -0.207694
     32       0.002202   0.004668   0.000095   0.003586   0.003158  -0.003734
     33      -0.049990  -0.002754   0.009725   0.053411  -0.008536  -0.000064
     34       0.004068  -0.033607   0.120787  -0.004520  -0.105933  -0.000236
     35      -0.000069  -0.000450   0.001608   0.000071  -0.001411  -0.000003
     36       0.058296  -0.161392  -0.447474  -0.077229   0.190608  -0.002974
     37       0.150866  -0.265895  -0.528707  -0.177479   0.177894  -0.003510
     38       0.002136  -0.003883  -0.008023  -0.002538   0.002785  -0.000054
     39       0.033426   0.116936   0.357399  -0.049104  -0.159744   0.002555
     40      -0.157827  -0.288286  -0.592807   0.189207   0.205756  -0.003462
     41      -0.001993  -0.003474  -0.006846   0.002361   0.002282  -0.000041
                 36         37         38         39         40         41    
      0      -0.003006   0.000248  -0.002343   0.000073   0.000156   0.001149
      1       0.000646   0.002920   0.000239   0.000936   0.001948  -0.000094
      2       0.000001   0.000039  -0.000002   0.000012   0.000027   0.000002
      3       0.041044  -0.028316   0.020204  -0.007381   0.000611  -0.000530
      4      -0.027575   0.020204  -0.016535   0.007014   0.000722  -0.000062
      5      -0.000261   0.000195  -0.000167   0.000074   0.000011  -0.000002
      6      -0.018780  -0.037013   0.050737  -0.031679  -0.000205   0.000024
      7      -0.007144  -0.019816   0.024929  -0.011875  -0.000258   0.000018
      8      -0.000139  -0.000346   0.000446  -0.000231  -0.000004   0.000000
      9       0.000439   0.003448  -0.004273  -0.006100   0.000029   0.000023
     10      -0.001986   0.041959   0.001002  -0.075474   0.000362  -0.000003
     11      -0.000025   0.000549   0.000003  -0.000988   0.000005  -0.000000
     12      -0.024295   0.031810   0.046762   0.029498   0.000162   0.000020
     13       0.014308  -0.024407  -0.033265  -0.016873  -0.000286  -0.000018
     14       0.000131  -0.000244  -0.000325  -0.000151  -0.000003  -0.000000
     15       0.055292   0.031230   0.023679   0.008538  -0.000489  -0.000510
     16       0.025102   0.015349   0.013602   0.005814   0.000813   0.000138
     17       0.000453   0.000270   0.000231   0.000095   0.000010   0.000001
     18      -0.472807   0.319323  -0.233209   0.085635  -0.000497   0.000556
     19       0.319837  -0.216654   0.160628  -0.060325  -0.000931  -0.002021
     20       0.003037  -0.002057   0.001533  -0.000581  -0.000014  -0.000025
     21       0.219520   0.434706  -0.577463   0.328305   0.000919  -0.000083
     22       0.099847   0.203609  -0.268609   0.148487   0.000064   0.000129
     23       0.001828   0.003694  -0.004882   0.002719   0.000002   0.000002
     24       0.001760  -0.040533   0.004155   0.067677  -0.000077   0.000021
     25       0.024483  -0.501733  -0.008085   0.838991  -0.000969   0.000001
     26       0.000320  -0.006572  -0.000095   0.010986  -0.000013   0.000000
     27       0.281401  -0.378671  -0.535070  -0.301679  -0.000901  -0.000095
     28      -0.187701   0.258406   0.362980   0.199983   0.000210  -0.000115
     29      -0.001796   0.002489   0.003488   0.001904  -0.000000  -0.000002
     30      -0.637642  -0.350578  -0.268270  -0.095711   0.000358   0.000868
     31      -0.294948  -0.162935  -0.126914  -0.046540  -0.000987   0.001920
     32      -0.005291  -0.002917  -0.002261  -0.000824  -0.000012   0.000027
     33       0.000355  -0.000035   0.000332  -0.000009  -0.004011   0.086194
     34      -0.000056  -0.000391  -0.000033  -0.000118  -0.053651  -0.006725
     35       0.000000  -0.000005   0.000000  -0.000002  -0.000708   0.000128
     36      -0.000764  -0.000464  -0.000260  -0.000477  -0.581660  -0.569222
     37       0.001745  -0.003328   0.000501  -0.000502   0.404370   0.410761
     38       0.000020  -0.000045   0.000006  -0.000007   0.003802   0.003911
     39      -0.000445  -0.000072  -0.000330   0.000388   0.634448  -0.631861
     40      -0.002419  -0.003378  -0.000559  -0.000580   0.304435  -0.316987
     41      -0.000033  -0.000045  -0.000008  -0.000006   0.005543  -0.005696


-----------
IR SPECTRUM
-----------

 Mode   freq       eps      Int      T**2         TX        TY        TZ
       cm**-1   L/(mol*cm) km/mol    a.u.
----------------------------------------------------------------------------
  7:    221.97   0.000775    3.92  0.001090  (-0.000079 -0.000440  0.033011)
  8:    382.36   0.000519    2.62  0.000424  (-0.020524  0.001638 -0.000023)
  9:    388.26   0.000000    0.00  0.000000  ( 0.000105  0.000005  0.000321)
 10:    424.10   0.000000    0.00  0.000000  ( 0.000008  0.000005 -0.000017)
 11:    526.27   0.002963   14.98  0.001757  (-0.000091 -0.000521  0.041915)
 12:    538.81   0.000007    0.04  0.000004  (-0.000168 -0.002020  0.000027)
 13:    634.47   0.000065    0.33  0.000032  (-0.005632  0.000460 -0.000007)
 14:    712.93   0.005194   26.25  0.002274  ( 0.000107  0.000611 -0.047679)
 15:    774.53   0.005576   28.18  0.002247  (-0.000109 -0.000592  0.047396)
 16:    828.78   0.000000    0.00  0.000000  (-0.000003  0.000001 -0.000044)
 17:    840.57   0.001331    6.73  0.000494  (-0.001792 -0.022154 -0.000300)
 18:    893.69   0.001142    5.77  0.000399  ( 0.000044  0.000260 -0.019965)
 19:    982.45   0.000000    0.00  0.000000  (-0.000020  0.000004 -0.000003)
 20:   1002.47   0.000782    3.95  0.000243  ( 0.001236  0.015553  0.000207)
 21:   1005.65   0.000054    0.27  0.000017  (-0.000009 -0.000049  0.004080)
 22:   1019.59   0.000006    0.03  0.000002  (-0.001336  0.000095  0.000001)
 23:   1048.95   0.000567    2.87  0.000169  ( 0.001074  0.012942  0.000170)
 24:   1114.13   0.001404    7.10  0.000393  ( 0.019765 -0.001624  0.000026)
 25:   1164.87   0.000515    2.60  0.000138  (-0.011709  0.000893 -0.000015)
 26:   1187.24   0.002206   11.15  0.000580  ( 0.001915  0.024003  0.000316)
 27:   1341.59   0.010796   54.56  0.002511  (-0.003963 -0.049951 -0.000670)
 28:   1345.65   0.000078    0.40  0.000018  ( 0.004254 -0.000302  0.000006)
 29:   1374.50   0.002931   14.81  0.000665  ( 0.025712 -0.002085  0.000033)
 30:   1499.47   0.000038    0.19  0.000008  (-0.002788  0.000222 -0.000003)
 31:   1537.94   0.010988   55.53  0.002230  ( 0.003829  0.047058  0.000632)
 32:   1612.04   0.018834   95.18  0.003646  (-0.004854 -0.060180 -0.000799)
 33:   1634.84   0.001510    7.63  0.000288  (-0.016918  0.001419 -0.000021)
 34:   1677.64   0.039022  197.20  0.007259  ( 0.006835  0.084915  0.001130)
 35:   3158.01   0.003801   19.21  0.000376  ( 0.000345  0.019377  0.000249)
 36:   3159.48   0.000918    4.64  0.000091  ( 0.009401  0.001512  0.000041)
 37:   3174.88   0.000597    3.02  0.000059  ( 0.000297  0.007652  0.000097)
 38:   3179.45   0.006786   34.30  0.000666  ( 0.025742 -0.001849  0.000036)
 39:   3197.65   0.002343   11.84  0.000229  (-0.001128 -0.015077 -0.000194)
 40:   3623.54   0.013223   66.82  0.001139  ( 0.002653  0.033638  0.000446)
 41:   3749.10   0.006355   32.11  0.000529  (-0.022939  0.001666 -0.000037)

* The epsilon (eps) is given for a Dirac delta lineshape.
** The dipole moment derivative (T) already includes vibrational overlap.

The first frequency considered to be a vibration is 7
The total number of vibrations considered is 35


--------------------------
THERMOCHEMISTRY AT 298.15K
--------------------------

Temperature         ... 298.15 K
Pressure            ... 1.00 atm
Total Mass          ... 93.13 AMU

Throughout the following assumptions are being made:
  (1) The electronic state is orbitally nondegenerate
  (2) There are no thermally accessible electronically excited states
  (3) Hindered rotations indicated by low frequency modes are not
      treated as such but are treated as vibrations and this may
      cause some error
  (4) All equations used are the standard statistical mechanics
      equations for an ideal gas
  (5) All vibrations are strictly harmonic

freq.     221.97  E(vib)   ...       0.33 
freq.     382.36  E(vib)   ...       0.21 
freq.     388.26  E(vib)   ...       0.20 
freq.     424.10  E(vib)   ...       0.18 
freq.     526.27  E(vib)   ...       0.13 
freq.     538.81  E(vib)   ...       0.12 
freq.     634.47  E(vib)   ...       0.09 
freq.     712.93  E(vib)   ...       0.07 
freq.     774.53  E(vib)   ...       0.05 
freq.     828.78  E(vib)   ...       0.04 
freq.     840.57  E(vib)   ...       0.04 
freq.     893.69  E(vib)   ...       0.03 
freq.     982.45  E(vib)   ...       0.02 
freq.    1002.47  E(vib)   ...       0.02 
freq.    1005.65  E(vib)   ...       0.02 
freq.    1019.59  E(vib)   ...       0.02 
freq.    1048.95  E(vib)   ...       0.02 
freq.    1114.13  E(vib)   ...       0.01 
freq.    1164.87  E(vib)   ...       0.01 
freq.    1187.24  E(vib)   ...       0.01 
freq.    1341.59  E(vib)   ...       0.01 
freq.    1345.65  E(vib)   ...       0.01 
freq.    1374.50  E(vib)   ...       0.01 
freq.    1499.47  E(vib)   ...       0.00 
freq.    1537.94  E(vib)   ...       0.00 
freq.    1612.04  E(vib)   ...       0.00 
freq.    1634.84  E(vib)   ...       0.00 
freq.    1677.64  E(vib)   ...       0.00 
freq.    3158.01  E(vib)   ...       0.00 
freq.    3159.48  E(vib)   ...       0.00 
freq.    3174.88  E(vib)   ...       0.00 
freq.    3179.45  E(vib)   ...       0.00 
freq.    3197.65  E(vib)   ...       0.00 
freq.    3623.54  E(vib)   ...       0.00 
freq.    3749.10  E(vib)   ...       0.00 

------------
INNER ENERGY
------------

The inner energy is: U= E(el) + E(ZPE) + E(vib) + E(rot) + E(trans)
    E(el)   - is the total energy from the electronic structure calculation
              = E(kin-el) + E(nuc-el) + E(el-el) + E(nuc-nuc)
    E(ZPE)  - the the zero temperature vibrational energy from the frequency calculation
    E(vib)  - the the finite temperature correction to E(ZPE) due to population
              of excited vibrational states
    E(rot)  - is the rotational thermal energy
    E(trans)- is the translational thermal energy

Summary of contributions to the inner energy U:
Electronic energy                ...   -287.23830412 Eh
Zero point energy                ...      0.11609061 Eh      72.85 kcal/mol
Thermal vibrational correction   ...      0.00267439 Eh       1.68 kcal/mol
Thermal rotational correction    ...      0.00141627 Eh       0.89 kcal/mol
Thermal translational correction ...      0.00141627 Eh       0.89 kcal/mol
-----------------------------------------------------------------------
Total thermal energy                   -287.11670658 Eh


Summary of corrections to the electronic energy:
(perhaps to be used in another calculation)
Total thermal correction                  0.00550693 Eh       3.46 kcal/mol
Non-thermal (ZPE) correction              0.11609061 Eh      72.85 kcal/mol
-----------------------------------------------------------------------
Total correction                          0.12159754 Eh      76.30 kcal/mol


--------
ENTHALPY
--------

The enthalpy is H = U + kB*T
                kB is Boltzmann's constant
Total free energy                 ...   -287.11670658 Eh 
Thermal Enthalpy correction       ...      0.00094421 Eh       0.59 kcal/mol
-----------------------------------------------------------------------
Total Enthalpy                    ...   -287.11576237 Eh


Note: Only C1 symmetry has been detected, increase convergence thresholds 
      if your molecule has a higher symmetry. Symmetry factor of 1.0 is   
      used for the rotational entropy correction. 
 

Note: Rotational entropy computed according to Herzberg 
Infrared and Raman Spectra, Chapter V,1, Van Nostrand Reinhold, 1945 
Point Group:  C1, Symmetry Number:   1  
Rotational constants in cm-1:     0.186761     0.086249     0.059001 

Vibrational entropy computed according to the QRRHO of S. Grimme
Chem.Eur.J. 2012 18 9955


-------
ENTROPY
-------

The entropy contributions are T*S = T*(S(el)+S(vib)+S(rot)+S(trans))
     S(el)   - electronic entropy
     S(vib)  - vibrational entropy
     S(rot)  - rotational entropy
     S(trans)- translational entropy
The entropies will be listed as multiplied by the temperature to get
units of energy

Electronic entropy                ...      0.00000000 Eh      0.00 kcal/mol
Vibrational entropy               ...      0.00387671 Eh      2.43 kcal/mol
Rotational entropy                ...      0.01279592 Eh      8.03 kcal/mol
Translational entropy             ...      0.01877043 Eh     11.78 kcal/mol
-----------------------------------------------------------------------
Final entropy term                ...      0.03544305 Eh     22.24 kcal/mol

In case the symmetry of your molecule has not been determined correctly
or in case you have a reason to use a different symmetry number we print 
out the resulting rotational entropy values for sn=1,12 :
 --------------------------------------------------------
|  sn= 1 | S(rot)=       0.01279592 Eh      8.03 kcal/mol|
|  sn= 2 | S(rot)=       0.01214146 Eh      7.62 kcal/mol|
|  sn= 3 | S(rot)=       0.01175863 Eh      7.38 kcal/mol|
|  sn= 4 | S(rot)=       0.01148701 Eh      7.21 kcal/mol|
|  sn= 5 | S(rot)=       0.01127632 Eh      7.08 kcal/mol|
|  sn= 6 | S(rot)=       0.01110417 Eh      6.97 kcal/mol|
|  sn= 7 | S(rot)=       0.01095863 Eh      6.88 kcal/mol|
|  sn= 8 | S(rot)=       0.01083255 Eh      6.80 kcal/mol|
|  sn= 9 | S(rot)=       0.01072134 Eh      6.73 kcal/mol|
|  sn=10 | S(rot)=       0.01062186 Eh      6.67 kcal/mol|
|  sn=11 | S(rot)=       0.01053187 Eh      6.61 kcal/mol|
|  sn=12 | S(rot)=       0.01044972 Eh      6.56 kcal/mol|
 --------------------------------------------------------


-------------------
GIBBS FREE ENERGY
-------------------

The Gibbs free energy is G = H - T*S

Total enthalpy                    ...   -287.11576237 Eh 
Total entropy correction          ...     -0.03544305 Eh    -22.24 kcal/mol
-----------------------------------------------------------------------
Final Gibbs free energy         ...   -287.15120543 Eh

For completeness - the Gibbs free energy minus the electronic energy
G-E(el)                           ...      0.08709869 Eh     54.66 kcal/mol


Timings for individual modules:

Sum of individual times         ...      706.297 sec (=  11.772 min)
GTO integral calculation        ...        7.253 sec (=   0.121 min)   1.0 %
SCF iterations                  ...      283.231 sec (=   4.721 min)  40.1 %
SCF Gradient evaluation         ...       84.740 sec (=   1.412 min)  12.0 %
Geometry relaxation             ...        1.621 sec (=   0.027 min)   0.2 %
Analytical frequency calculation...      329.452 sec (=   5.491 min)  46.6 %
                             ****ORCA TERMINATED NORMALLY****
TOTAL RUN TIME: 0 days 0 hours 11 minutes 49 seconds 721 msec
