
                                 *****************
                                 * O   R   C   A *
                                 *****************

                                            #,                                       
                                            ###                                      
                                            ####                                     
                                            #####                                    
                                            ######                                   
                                           ########,                                 
                                     ,,################,,,,,                         
                               ,,#################################,,                 
                          ,,##########################################,,             
                       ,#########################################, ''#####,          
                    ,#############################################,,   '####,        
                  ,##################################################,,,,####,       
                ,###########''''           ''''###############################       
              ,#####''   ,,,,##########,,,,          '''####'''          '####       
            ,##' ,,,,###########################,,,                        '##       
           ' ,,###''''                  '''############,,,                           
         ,,##''                                '''############,,,,        ,,,,,,###''
      ,#''                                            '''#######################'''  
     '                                                          ''''####''''         
             ,#######,   #######,   ,#######,      ##                                
            ,#'     '#,  ##    ##  ,#'     '#,    #''#        ######   ,####,        
            ##       ##  ##   ,#'  ##            #'  '#       #        #'  '#        
            ##       ##  #######   ##           ,######,      #####,   #    #        
            '#,     ,#'  ##    ##  '#,     ,#' ,#      #,         ##   #,  ,#        
             '#######'   ##     ##  '#######'  #'      '#     #####' # '####'        



                  #######################################################
                  #                        -***-                        #
                  #          Department of theory and spectroscopy      #
                  #    Directorship and core code : Frank Neese         #
                  #        Max Planck Institute fuer Kohlenforschung    #
                  #                Kaiser Wilhelm Platz 1               #
                  #                 D-45470 Muelheim/Ruhr               #
                  #                      Germany                        #
                  #                                                     #
                  #                  All rights reserved                #
                  #                        -***-                        #
                  #######################################################



                         Program Version 5.0.4 -  RELEASE  -

 With contributions from (in alphabetic order):
   Daniel Aravena         : Magnetic Suceptibility
   Michael Atanasov       : Ab Initio Ligand Field Theory (pilot matlab implementation)
   Alexander A. Auer      : GIAO ZORA, VPT2 properties, NMR spectrum
   Ute Becker             : Parallelization
   Giovanni Bistoni       : ED, misc. LED, open-shell LED, HFLD
   Martin Brehm           : Molecular dynamics
   Dmytro Bykov           : SCF Hessian
   Vijay G. Chilkuri      : MRCI spin determinant printing, contributions to CSF-ICE
   Dipayan Datta          : RHF DLPNO-CCSD density
   Achintya Kumar Dutta   : EOM-CC, STEOM-CC
   Dmitry Ganyushin       : Spin-Orbit,Spin-Spin,Magnetic field MRCI
   Miquel Garcia          : C-PCM and meta-GGA Hessian, CC/C-PCM, Gaussian charge scheme
   Yang Guo               : DLPNO-NEVPT2, F12-NEVPT2, CIM, IAO-localization
   Andreas Hansen         : Spin unrestricted coupled pair/coupled cluster methods
   Benjamin Helmich-Paris : MC-RPA, TRAH-SCF, COSX integrals
   Lee Huntington         : MR-EOM, pCC
   Robert Izsak           : Overlap fitted RIJCOSX, COSX-SCS-MP3, EOM
   Marcus Kettner         : VPT2
   Christian Kollmar      : KDIIS, OOCD, Brueckner-CCSD(T), CCSD density, CASPT2, CASPT2-K
   Simone Kossmann        : Meta GGA functionals, TD-DFT gradient, OOMP2, MP2 Hessian
   Martin Krupicka        : Initial AUTO-CI
   Lucas Lang             : DCDCAS
   Marvin Lechner         : AUTO-CI (C++ implementation), FIC-MRCC
   Dagmar Lenk            : GEPOL surface, SMD
   Dimitrios Liakos       : Extrapolation schemes; Compound Job, initial MDCI parallelization
   Dimitrios Manganas     : Further ROCIS development; embedding schemes
   Dimitrios Pantazis     : SARC Basis sets
   Anastasios Papadopoulos: AUTO-CI, single reference methods and gradients
   Taras Petrenko         : DFT Hessian,TD-DFT gradient, ASA, ECA, R-Raman, ABS, FL, XAS/XES, NRVS
   Peter Pinski           : DLPNO-MP2, DLPNO-MP2 Gradient
   Christoph Reimann      : Effective Core Potentials
   Marius Retegan         : Local ZFS, SOC
   Christoph Riplinger    : Optimizer, TS searches, QM/MM, DLPNO-CCSD(T), (RO)-DLPNO pert. Triples
   Tobias Risthaus        : Range-separated hybrids, TD-DFT gradient, RPA, STAB
   Michael Roemelt        : Original ROCIS implementation
   Masaaki Saitow         : Open-shell DLPNO-CCSD energy and density
   Barbara Sandhoefer     : DKH picture change effects
   Avijit Sen             : IP-ROCIS
   Kantharuban Sivalingam : CASSCF convergence, NEVPT2, FIC-MRCI
   Bernardo de Souza      : ESD, SOC TD-DFT
   Georgi Stoychev        : AutoAux, RI-MP2 NMR, DLPNO-MP2 response
   Willem Van den Heuvel  : Paramagnetic NMR
   Boris Wezisla          : Elementary symmetry handling
   Frank Wennmohs         : Technical directorship


 We gratefully acknowledge several colleagues who have allowed us to
 interface, adapt or use parts of their codes:
   Stefan Grimme, W. Hujo, H. Kruse, P. Pracht,  : VdW corrections, initial TS optimization,
                  C. Bannwarth, S. Ehlert          DFT functionals, gCP, sTDA/sTD-DF
   Ed Valeev, F. Pavosevic, A. Kumar             : LibInt (2-el integral package), F12 methods
   Garnet Chan, S. Sharma, J. Yang, R. Olivares  : DMRG
   Ulf Ekstrom                                   : XCFun DFT Library
   Mihaly Kallay                                 : mrcc  (arbitrary order and MRCC methods)
   Jiri Pittner, Ondrej Demel                    : Mk-CCSD
   Frank Weinhold                                : gennbo (NPA and NBO analysis)
   Christopher J. Cramer and Donald G. Truhlar   : smd solvation model
   Lars Goerigk                                  : TD-DFT with DH, B97 family of functionals
   V. Asgeirsson, H. Jonsson                     : NEB implementation
   FAccTs GmbH                                   : IRC, NEB, NEB-TS, DLPNO-Multilevel, CI-OPT
                                                   MM, QMMM, 2- and 3-layer-ONIOM, Crystal-QMMM,
                                                   LR-CPCM, SF, NACMEs, symmetry and pop. for TD-DFT,
                                                   nearIR, NL-DFT gradient (VV10), updates on ESD,
                                                   ML-optimized integration grids
   S Lehtola, MJT Oliveira, MAL Marques          : LibXC Library
   Liviu Ungur et al                             : ANISO software


 Your calculation uses the libint2 library for the computation of 2-el integrals
 For citations please refer to: http://libint.valeyev.net

 Your ORCA version has been built with support for libXC version: 5.1.0
 For citations please refer to: https://tddft.org/programs/libxc/

 This ORCA versions uses:
   CBLAS   interface :  Fast vector & matrix operations
   LAPACKE interface :  Fast linear algebra routines
   Shared memory     :  Shared parallel matrices


================================================================================

----- Orbital basis set information -----
Your calculation utilizes the basis: def2-SVP
   F. Weigend and R. Ahlrichs, Phys. Chem. Chem. Phys. 7, 3297 (2005).

----- AuxJ basis set information -----
Your calculation utilizes the auxiliary basis: def2/J
   F. Weigend, Phys. Chem. Chem. Phys. 8, 1057 (2006).

================================================================================
                                        WARNINGS
                       Please study these warnings very carefully!
================================================================================

WARNING: Old DensityContainer found on disk!
         Will remove this file - 
         If you want to keep old densities, please start your calculation with a different basename. 


INFO   : the flag for use of the SHARK integral package has been found!

================================================================================
                                       INPUT FILE
================================================================================
NAME = center1.inp
|  1> !B3LYP DEF2-SVP FREQ
|  2> 
|  3> * xyz 0 1
|  4>    C        2.77902        2.33714       -3.56558
|  5>    O        1.97196        3.20221       -3.36556
|  6>    O        3.56412        1.46259       -3.78648
|  7>    C        0.60339        5.89678       -2.07378
|  8>    C        2.95432        5.17091       -5.75427
|  9>    C        5.43655       -1.02628       -4.46233
| 10>    O        1.58090        4.93144       -5.50205
| 11>    O        1.94447        5.49403       -1.86606
| 12>    O        5.80082        0.03070       -3.59425
| 13>    H        5.01658        0.64196       -3.59596
| 14>    H        2.04502        4.64748       -2.36795
| 15>    H        1.57211        4.29491       -4.74615
| 16>    H        3.04447        5.90438       -6.55893
| 17>    H        3.43024        5.56411       -4.85237
| 18>    H        3.43837        4.24006       -6.06007
| 19>    H        0.45375        6.87734       -1.61556
| 20>    H        0.39816        5.96617       -3.14436
| 21>    H       -0.07266        5.17742       -1.60685
| 22>    C        0.48624        1.93839       -0.84179
| 23>    H        0.88909        2.79344       -0.29176
| 24>    H       -0.97145        0.86560        0.02547
| 25>    H       -0.18663        1.38513       -0.18164
| 26>    H        6.26040       -1.74202       -4.51377
| 27>    H        4.54746       -1.52906       -4.07409
| 28>    H        5.24173       -0.62990       -5.46178
| 29>    C        1.48710       -0.59411       -5.04830
| 30>    N        1.78993        0.74763       -4.57677
| 31>    H        2.59673        1.08390       -5.13471
| 32>    H        2.20273        0.67329       -3.64550
| 33>    H        2.37476       -1.23144       -5.00042
| 34>    H        0.70133       -1.04092       -4.43307
| 35>    H        1.13687       -0.55811       -6.08360
| 36>    O       -0.26338        2.42084       -1.94647
| 37>    H        0.42432        2.73465       -2.58348
| 38> **                         ****END OF INPUT****
================================================================================

                       ****************************
                       * Single Point Calculation *
                       ****************************

---------------------------------
CARTESIAN COORDINATES (ANGSTROEM)
---------------------------------
  C      2.779020    2.337140   -3.565580
  O      1.971960    3.202210   -3.365560
  O      3.564120    1.462590   -3.786480
  C      0.603390    5.896780   -2.073780
  C      2.954320    5.170910   -5.754270
  C      5.436550   -1.026280   -4.462330
  O      1.580900    4.931440   -5.502050
  O      1.944470    5.494030   -1.866060
  O      5.800820    0.030700   -3.594250
  H      5.016580    0.641960   -3.595960
  H      2.045020    4.647480   -2.367950
  H      1.572110    4.294910   -4.746150
  H      3.044470    5.904380   -6.558930
  H      3.430240    5.564110   -4.852370
  H      3.438370    4.240060   -6.060070
  H      0.453750    6.877340   -1.615560
  H      0.398160    5.966170   -3.144360
  H     -0.072660    5.177420   -1.606850
  C      0.486240    1.938390   -0.841790
  H      0.889090    2.793440   -0.291760
  H     -0.971450    0.865600    0.025470
  H     -0.186630    1.385130   -0.181640
  H      6.260400   -1.742020   -4.513770
  H      4.547460   -1.529060   -4.074090
  H      5.241730   -0.629900   -5.461780
  C      1.487100   -0.594110   -5.048300
  N      1.789930    0.747630   -4.576770
  H      2.596730    1.083900   -5.134710
  H      2.202730    0.673290   -3.645500
  H      2.374760   -1.231440   -5.000420
  H      0.701330   -1.040920   -4.433070
  H      1.136870   -0.558110   -6.083600
  O     -0.263380    2.420840   -1.946470
  H      0.424320    2.734650   -2.583480

----------------------------
CARTESIAN COORDINATES (A.U.)
----------------------------
  NO LB      ZA    FRAG     MASS         X           Y           Z
   0 C     6.0000    0    12.011    5.251587    4.416555   -6.737970
   1 O     8.0000    0    15.999    3.726464    6.051300   -6.359987
   2 O     8.0000    0    15.999    6.735211    2.763895   -7.155410
   3 C     6.0000    0    12.011    1.140242   11.143299   -3.918876
   4 C     6.0000    0    12.011    5.582856    9.771604  -10.873994
   5 C     6.0000    0    12.011   10.273591   -1.939388   -8.432582
   6 O     8.0000    0    15.999    2.987468    9.319071  -10.397368
   7 O     8.0000    0    15.999    3.674516   10.382212   -3.526342
   8 O     8.0000    0    15.999   10.961961    0.058015   -6.792148
   9 H     1.0000    0     1.008    9.479962    1.213129   -6.795380
  10 H     1.0000    0     1.008    3.864528    8.782464   -4.474777
  11 H     1.0000    0     1.008    2.970857    8.116204   -8.968924
  12 H     1.0000    0     1.008    5.753215   11.157661  -12.394581
  13 H     1.0000    0     1.008    6.482214   10.514644   -9.169650
  14 H     1.0000    0     1.008    6.497578    8.012552  -11.451873
  15 H     1.0000    0     1.008    0.857463   12.996289   -3.052966
  16 H     1.0000    0     1.008    0.752413   11.274427   -5.941979
  17 H     1.0000    0     1.008   -0.137308    9.783906   -3.036506
  18 C     6.0000    0    12.011    0.918860    3.663026   -1.590753
  19 H     1.0000    0     1.008    1.680137    5.278837   -0.551346
  20 H     1.0000    0     1.008   -1.835774    1.635747    0.048131
  21 H     1.0000    0     1.008   -0.352680    2.617516   -0.343250
  22 H     1.0000    0     1.008   11.830441   -3.291941   -8.529789
  23 H     1.0000    0     1.008    8.593454   -2.889505   -7.698914
  24 H     1.0000    0     1.008    9.905434   -1.190338  -10.321268
  25 C     6.0000    0    12.011    2.810212   -1.122705   -9.539904
  26 N     7.0000    0    14.007    3.382477    1.412816   -8.648842
  27 H     1.0000    0     1.008    4.907109    2.048274   -9.703196
  28 H     1.0000    0     1.008    4.162556    1.272334   -6.888997
  29 H     1.0000    0     1.008    4.487646   -2.327084   -9.449424
  30 H     1.0000    0     1.008    1.325322   -1.967054   -8.377288
  31 H     1.0000    0     1.008    2.148373   -1.054675  -11.496338
  32 O     8.0000    0    15.999   -0.497716    4.574725   -3.678295
  33 H     1.0000    0     1.008    0.801849    5.167740   -4.882070

--------------------------------
INTERNAL COORDINATES (ANGSTROEM)
--------------------------------
 C      0   0   0     0.000000000000     0.00000000     0.00000000
 O      1   0   0     1.199874972195     0.00000000     0.00000000
 O      1   2   0     1.195832982694   178.49362637     0.00000000
 C      2   1   3     3.286698479964   159.50023408   180.91712253
 C      2   1   3     3.247575453119    96.37175256   274.54197527
 C      3   1   2     3.187042705126   174.88289833   334.63803709
 O      5   2   1     1.416772143183    58.22116899   137.04236783
 O      4   2   1     1.415574345381    55.24514679     9.32962208
 O      6   3   1     1.415437119656    55.80435229   199.98868323
 H      9   6   3     0.994320918668   104.77541220   359.76322523
 H      8   4   2     0.989267798475   105.38561304   359.03189590
 H      7   5   2     0.988247193267   104.69422299   359.02121752
 H      5   2   1     1.092512232883   166.82605646   150.78580490
 H      5   2   1     1.092945422425    75.09854745   262.06478050
 H      5   2   1     1.092840228487    79.83120673    16.26200480
 H      4   2   1     1.092636999007   163.25552743    29.38127267
 H      4   2   1     1.092280120390    75.23207337   136.97328755
 H      4   2   1     1.092037562083    83.44111989   249.86816644
 C      2   1   3     3.189673952569    99.17995177    96.00527326
 H     19   2   1     1.093586588204    85.21452821   114.82871219
 H     19   2   1     2.006957505230   153.12810059   265.77407975
 H     21  19   2     0.963715936052    13.46283255   173.43292962
 H      6   3   1     1.092546861100   164.71050031   199.97323776
 H      6   3   1     1.092702637546    78.81043944   323.17724447
 H      6   3   1     1.092690367533    78.80947214    76.72629994
 C      3   1   2     3.183742559128    96.73883716   338.53269159
 N     26   3   1     1.454067666032    30.62850358    10.77222650
 H     27  26   3     1.036967114474   106.66575255    58.22064293
 H     27  26   3     1.021368732878   108.22128837   309.67573260
 H     26   3   1     1.093810906373    80.19052885   187.21493932
 H     26   3   1     1.093426550757   120.65040627   293.21106233
 H     26   3   1     1.093527842764   124.25685199    81.20434392
 O     19   2   1     1.419509087431    59.70619727   229.72957149
 H     33  19   2     0.988529082122   104.00442153     1.13287665

---------------------------
INTERNAL COORDINATES (A.U.)
---------------------------
 C      0   0   0     0.000000000000     0.00000000     0.00000000
 O      1   0   0     2.267435092395     0.00000000     0.00000000
 O      1   2   0     2.259796839203   178.49362637     0.00000000
 C      2   1   3     6.210960011908   159.50023408   180.91712253
 C      2   1   3     6.137028205640    96.37175256   274.54197527
 C      3   1   2     6.022637889801   174.88289833   334.63803709
 O      5   2   1     2.677311344785    58.22116899   137.04236783
 O      4   2   1     2.675047834974    55.24514679     9.32962208
 O      6   3   1     2.674788515936    55.80435229   199.98868323
 H      9   6   3     1.878994225511   104.77541220   359.76322523
 H      8   4   2     1.869445212225   105.38561304   359.03189590
 H      7   5   2     1.867516547891   104.69422299   359.02121752
 H      5   2   1     2.064548918109   166.82605646   150.78580490
 H      5   2   1     2.065367527706    75.09854745   262.06478050
 H      5   2   1     2.065168739973    79.83120673    16.26200480
 H      4   2   1     2.064784691914   163.25552743    29.38127267
 H      4   2   1     2.064110289064    75.23207337   136.97328755
 H      4   2   1     2.063651920292    83.44111989   249.86816644
 C      2   1   3     6.027610226858    99.17995177    96.00527326
 H     19   2   1     2.066579155435    85.21452821   114.82871219
 H     19   2   1     3.792600047303   153.12810059   265.77407975
 H     21  19   2     1.821159190033    13.46283255   173.43292962
 H      6   3   1     2.064614355955   164.71050031   199.97323776
 H      6   3   1     2.064908730775    78.81043944   323.17724447
 H      6   3   1     2.064885543812    78.80947214    76.72629994
 C      3   1   2     6.016401517661    96.73883716   338.53269159
 N     26   3   1     2.747789668991    30.62850358    10.77222650
 H     27  26   3     1.959583856238   106.66575255    58.22064293
 H     27  26   3     1.930107186889   108.22128837   309.67573260
 H     26   3   1     2.067003055341    80.19052885   187.21493932
 H     26   3   1     2.066276728489   120.65040627   293.21106233
 H     26   3   1     2.066468142642   124.25685199    81.20434392
 O     19   2   1     2.682483419858    59.70619727   229.72957149
 H     33  19   2     1.868049240626   104.00442153     1.13287665

---------------------
BASIS SET INFORMATION
---------------------
There are 4 groups of distinct atoms

 Group   1 Type C   : 7s4p1d contracted to 3s2p1d pattern {511/31/1}
 Group   2 Type O   : 7s4p1d contracted to 3s2p1d pattern {511/31/1}
 Group   3 Type H   : 4s1p contracted to 2s1p pattern {31/1}
 Group   4 Type N   : 7s4p1d contracted to 3s2p1d pattern {511/31/1}

Atom   0C    basis set group =>   1
Atom   1O    basis set group =>   2
Atom   2O    basis set group =>   2
Atom   3C    basis set group =>   1
Atom   4C    basis set group =>   1
Atom   5C    basis set group =>   1
Atom   6O    basis set group =>   2
Atom   7O    basis set group =>   2
Atom   8O    basis set group =>   2
Atom   9H    basis set group =>   3
Atom  10H    basis set group =>   3
Atom  11H    basis set group =>   3
Atom  12H    basis set group =>   3
Atom  13H    basis set group =>   3
Atom  14H    basis set group =>   3
Atom  15H    basis set group =>   3
Atom  16H    basis set group =>   3
Atom  17H    basis set group =>   3
Atom  18C    basis set group =>   1
Atom  19H    basis set group =>   3
Atom  20H    basis set group =>   3
Atom  21H    basis set group =>   3
Atom  22H    basis set group =>   3
Atom  23H    basis set group =>   3
Atom  24H    basis set group =>   3
Atom  25C    basis set group =>   1
Atom  26N    basis set group =>   4
Atom  27H    basis set group =>   3
Atom  28H    basis set group =>   3
Atom  29H    basis set group =>   3
Atom  30H    basis set group =>   3
Atom  31H    basis set group =>   3
Atom  32O    basis set group =>   2
Atom  33H    basis set group =>   3
---------------------------------
AUXILIARY/J BASIS SET INFORMATION
---------------------------------
There are 4 groups of distinct atoms

 Group   1 Type C   : 12s5p4d2f1g contracted to 6s4p3d1f1g pattern {711111/2111/211/2/1}
 Group   2 Type O   : 12s5p4d2f1g contracted to 6s4p3d1f1g pattern {711111/2111/211/2/1}
 Group   3 Type H   : 5s2p1d contracted to 3s1p1d pattern {311/2/1}
 Group   4 Type N   : 12s5p4d2f1g contracted to 6s4p3d1f1g pattern {711111/2111/211/2/1}

Atom   0C    basis set group =>   1
Atom   1O    basis set group =>   2
Atom   2O    basis set group =>   2
Atom   3C    basis set group =>   1
Atom   4C    basis set group =>   1
Atom   5C    basis set group =>   1
Atom   6O    basis set group =>   2
Atom   7O    basis set group =>   2
Atom   8O    basis set group =>   2
Atom   9H    basis set group =>   3
Atom  10H    basis set group =>   3
Atom  11H    basis set group =>   3
Atom  12H    basis set group =>   3
Atom  13H    basis set group =>   3
Atom  14H    basis set group =>   3
Atom  15H    basis set group =>   3
Atom  16H    basis set group =>   3
Atom  17H    basis set group =>   3
Atom  18C    basis set group =>   1
Atom  19H    basis set group =>   3
Atom  20H    basis set group =>   3
Atom  21H    basis set group =>   3
Atom  22H    basis set group =>   3
Atom  23H    basis set group =>   3
Atom  24H    basis set group =>   3
Atom  25C    basis set group =>   1
Atom  26N    basis set group =>   4
Atom  27H    basis set group =>   3
Atom  28H    basis set group =>   3
Atom  29H    basis set group =>   3
Atom  30H    basis set group =>   3
Atom  31H    basis set group =>   3
Atom  32O    basis set group =>   2
Atom  33H    basis set group =>   3

Checking for AutoStart:
The File: center1.gbw exists
Trying to determine its content:
     ... Fine, the file contains calculation information
     ... Fine, the calculation information was read
     ... Fine, the file contains a basis set
     ... Fine, the basis set was read
     ... Fine, the file contains a geometry
     ... Fine, the geometry was read
     ... Fine, the file contains a set of orbitals
     ... Fine, the orbitals can be read
     => possible old guess file was deleted
     => GBW file was renamed to GES file
     => GES file is set as startup file
     => Guess is set to MORead
     ... now leaving AutoStart

------------------------------------------------------------------------------
                           ORCA GTO INTEGRAL CALCULATION
                           -- RI-GTO INTEGRALS CHOSEN --
------------------------------------------------------------------------------
------------------------------------------------------------------------------
                   ___                                                        
                  /   \      - P O W E R E D   B Y -                         
                 /     \                                                     
                 |  |  |   _    _      __       _____    __    __             
                 |  |  |  | |  | |    /  \     |  _  \  |  |  /  |          
                  \  \/   | |  | |   /    \    | | | |  |  | /  /          
                 / \  \   | |__| |  /  /\  \   | |_| |  |  |/  /          
                |  |  |   |  __  | /  /__\  \  |    /   |      \           
                |  |  |   | |  | | |   __   |  |    \   |  |\   \          
                \     /   | |  | | |  |  |  |  | |\  \  |  | \   \       
                 \___/    |_|  |_| |__|  |__|  |_| \__\ |__|  \__/        
                                                                              
                      - O R C A' S   B I G   F R I E N D -                    
                                      &                                       
                       - I N T E G R A L  F E E D E R -                       
                                                                              
 v1 FN, 2020, v2 2021                                                         
------------------------------------------------------------------------------


Reading SHARK input file center1.SHARKINP.tmp ... ok
----------------------
SHARK INTEGRAL PACKAGE
----------------------

Number of atoms                             ...     34
Number of basis functions                   ...    287
Number of shells                            ...    141
Maximum angular momentum                    ...      2
Integral batch strategy                     ... SHARK/LIBINT Hybrid
RI-J (if used) integral strategy            ... SPLIT-RIJ (Revised 2003 algorithm where possible)
Printlevel                                  ...      1
Contraction scheme used                     ... SEGMENTED contraction
Coulomb Range Separation                    ... NOT USED
Exchange Range Separation                   ... NOT USED
Finite Nucleus Model                        ... NOT USED
Auxiliary Coulomb fitting basis             ... AVAILABLE
   # of basis functions in Aux-J            ...    868
   # of shells in Aux-J                     ...    300
   Maximum angular momentum in Aux-J        ...      4
Auxiliary J/K fitting basis                 ... NOT available
Auxiliary Correlation fitting basis         ... NOT available
Auxiliary 'external' fitting basis          ... NOT available
Integral threshold                          ...     1.000000e-10
Primitive cut-off                           ...     1.000000e-11
Primitive pair pre-selection threshold      ...     1.000000e-11

Calculating pre-screening integrals         ... done (  0.1 sec) Dimension = 141
Organizing shell pair data                  ... done (  0.1 sec)
Shell pair information
Total number of shell pairs                 ...     10011
Shell pairs after pre-screening             ...      7387
Total number of primitive shell pairs       ...     34423
Primitive shell pairs kept                  ...     16603
          la=0 lb=0:   2631 shell pairs
          la=1 lb=0:   2808 shell pairs
          la=1 lb=1:    774 shell pairs
          la=2 lb=0:    734 shell pairs
          la=2 lb=1:    383 shell pairs
          la=2 lb=2:     57 shell pairs

Calculating one electron integrals          ... done (  0.0 sec)
Calculating RI/J V-Matrix + Cholesky decomp.... done (  0.0 sec)
Calculating Nuclear repulsion               ... done (  0.0 sec) ENN=    898.033140309169 Eh

SHARK setup successfully completed in   0.4 seconds

Maximum memory used throughout the entire GTOINT-calculation: 36.7 MB
-------------------------------------------------------------------------------
                                 ORCA SCF
-------------------------------------------------------------------------------

------------
SCF SETTINGS
------------
Hamiltonian:
 Density Functional     Method          .... DFT(GTOs)
 Exchange Functional    Exchange        .... B88
   X-Alpha parameter    XAlpha          ....  0.666667
   Becke's b parameter  XBeta           ....  0.004200
 Correlation Functional Correlation     .... LYP
 LDA part of GGA corr.  LDAOpt          .... VWN-5
 Gradients option       PostSCFGGA      .... off
 Hybrid DFT is turned on
   Fraction HF Exchange ScalHFX         ....  0.200000
   Scaling of DF-GGA-X  ScalDFX         ....  0.720000
   Scaling of DF-GGA-C  ScalDFC         ....  0.810000
   Scaling of DF-LDA-C  ScalLDAC        ....  1.000000
   Perturbative correction              ....  0.000000
   Density functional embedding theory  .... OFF
   NL short-range parameter             ....  4.800000
 RI-approximation to the Coulomb term is turned on
   Number of AuxJ basis functions       .... 868
   RIJ-COSX (HFX calculated with COS-X)).... on


General Settings:
 Integral files         IntName         .... center1
 Hartree-Fock type      HFTyp           .... RHF
 Total Charge           Charge          ....    0
 Multiplicity           Mult            ....    1
 Number of Electrons    NEL             ....  112
 Basis Dimension        Dim             ....  287
 Nuclear Repulsion      ENuc            ....    898.0331403092 Eh

Convergence Acceleration:
 DIIS                   CNVDIIS         .... on
   Start iteration      DIISMaxIt       ....    12
   Startup error        DIISStart       ....  0.200000
   # of expansion vecs  DIISMaxEq       ....     5
   Bias factor          DIISBfac        ....   1.050
   Max. coefficient     DIISMaxC        ....  10.000
 Trust-Rad. Augm. Hess. CNVTRAH         .... auto
   Auto Start mean grad. ratio tolernc. ....  1.125000
   Auto Start start iteration           ....     1
   Auto Start num. interpolation iter.  ....    10
   Max. Number of Micro iterations      ....    16
   Max. Number of Macro iterations      .... Maxiter - #DIIS iter
   Number of Davidson start vectors     ....     2
   Converg. threshold I  (grad. norm)   ....   5.000e-05
   Converg. threshold II (energy diff.) ....   1.000e-06
   Grad. Scal. Fac. for Micro threshold ....   0.100
   Minimum threshold for Micro iter.    ....   0.010
   NR start threshold (gradient norm)   ....   0.001
   Initial trust radius                 ....   0.400
   Minimum AH scaling param. (alpha)    ....   1.000
   Maximum AH scaling param. (alpha)    .... 1000.000
   Orbital update algorithm             .... Taylor
   White noise on init. David. guess    .... on
   Maximum white noise                  ....   0.010
   Quad. conv. algorithm                .... NR
 SOSCF                  CNVSOSCF        .... on
   Start iteration      SOSCFMaxIt      ....   150
   Startup grad/error   SOSCFStart      ....  0.003300
 Level Shifting         CNVShift        .... on
   Level shift para.    LevelShift      ....    0.2500
   Turn off err/grad.   ShiftErr        ....    0.0010
 Zerner damping         CNVZerner       .... off
 Static damping         CNVDamp         .... on
   Fraction old density DampFac         ....    0.7000
   Max. Damping (<1)    DampMax         ....    0.9800
   Min. Damping (>=0)   DampMin         ....    0.0000
   Turn off err/grad.   DampErr         ....    0.1000
 Fernandez-Rico         CNVRico         .... off

SCF Procedure:
 Maximum # iterations   MaxIter         ....   125
 SCF integral mode      SCFMode         .... Direct
   Integral package                     .... SHARK and LIBINT hybrid scheme
 Reset frequency        DirectResetFreq ....    20
 Integral Threshold     Thresh          ....  1.000e-10 Eh
 Primitive CutOff       TCut            ....  1.000e-11 Eh

Convergence Tolerance:
 Convergence Check Mode ConvCheckMode   .... Total+1el-Energy
 Convergence forced     ConvForced      .... 0
 Energy Change          TolE            ....  1.000e-06 Eh
 1-El. energy change                    ....  1.000e-03 Eh
 Orbital Gradient       TolG            ....  5.000e-05
 Orbital Rotation angle TolX            ....  5.000e-05
 DIIS Error             TolErr          ....  1.000e-06


Diagonalization of the overlap matrix:
Smallest eigenvalue                        ... 4.854e-03
Time for diagonalization                   ...    0.013 sec
Threshold for overlap eigenvalues          ... 1.000e-08
Number of eigenvalues below threshold      ... 0
Time for construction of square roots      ...    0.007 sec
Total time needed                          ...    0.020 sec

---------------------
INITIAL GUESS: MOREAD
---------------------
Guess MOs are being read from file: center1.ges
Input Geometry matches current geometry (good)
Input basis set matches current basis set (good)
MOs were renormalized
MOs were reorthogonalized (Cholesky)
                      ------------------
                      INITIAL GUESS DONE (   0.0 sec)
                      ------------------
-------------------
DFT GRID GENERATION
-------------------

General Integration Accuracy     IntAcc      ... 4.388
Radial Grid Type                 RadialGrid  ... OptM3 with GC (2021)
Angular Grid (max. ang.)         AngularGrid ... 4 (Lebedev-302)
Angular grid pruning method      GridPruning ... 4 (adaptive)
Weight generation scheme         WeightScheme... Becke
Basis function cutoff            BFCut       ... 1.0000e-10
Integration weight cutoff        WCut        ... 1.0000e-14
Angular grids for H and He will be reduced by one unit
Partially contracted basis set               ... off
Rotationally invariant grid construction     ... off

Total number of grid points                  ...   146214
Total number of batches                      ...     2301
Average number of points per batch           ...       63
Average number of grid points per atom       ...     4300
Time for grid setup =    2.534 sec

--------------------
COSX GRID GENERATION
--------------------

GRIDX 1
-------
General Integration Accuracy     IntAcc      ... 3.816
Radial Grid Type                 RadialGrid  ... OptM3 with GC (2021)
Angular Grid (max. ang.)         AngularGrid ... 1 (Lebedev-50)
Angular grid pruning method      GridPruning ... 4 (adaptive)
Weight generation scheme         WeightScheme... Becke
Basis function cutoff            BFCut       ... 1.0000e-10
Integration weight cutoff        WCut        ... 1.0000e-14
Angular grids for H and He will be reduced by one unit
Partially contracted basis set               ... on
Rotationally invariant grid construction     ... off

Total number of grid points                  ...    18698
Total number of batches                      ...      312
Average number of points per batch           ...       59
Average number of grid points per atom       ...      550
UseSFitting                                  ... on

GRIDX 2
-------
General Integration Accuracy     IntAcc      ... 4.020
Radial Grid Type                 RadialGrid  ... OptM3 with GC (2021)
Angular Grid (max. ang.)         AngularGrid ... 2 (Lebedev-110)
Angular grid pruning method      GridPruning ... 4 (adaptive)
Weight generation scheme         WeightScheme... Becke
Basis function cutoff            BFCut       ... 1.0000e-10
Integration weight cutoff        WCut        ... 1.0000e-14
Angular grids for H and He will be reduced by one unit
Partially contracted basis set               ... on
Rotationally invariant grid construction     ... off

Total number of grid points                  ...    39122
Total number of batches                      ...      628
Average number of points per batch           ...       62
Average number of grid points per atom       ...     1151
UseSFitting                                  ... on

GRIDX 3
-------
General Integration Accuracy     IntAcc      ... 4.338
Radial Grid Type                 RadialGrid  ... OptM3 with GC (2021)
Angular Grid (max. ang.)         AngularGrid ... 3 (Lebedev-194)
Angular grid pruning method      GridPruning ... 4 (adaptive)
Weight generation scheme         WeightScheme... Becke
Basis function cutoff            BFCut       ... 1.0000e-10
Integration weight cutoff        WCut        ... 1.0000e-14
Angular grids for H and He will be reduced by one unit
Partially contracted basis set               ... on
Rotationally invariant grid construction     ... off

Total number of grid points                  ...    85195
Total number of batches                      ...     1346
Average number of points per batch           ...       63
Average number of grid points per atom       ...     2506
UseSFitting                                  ... on

Time for X-Grid setup             =    2.963 sec

--------------
SCF ITERATIONS
--------------
ITER       Energy         Delta-E        Max-DP      RMS-DP      [F,P]     Damp
               ***  Starting incremental Fock matrix formation  ***
                      *** Initiating the SOSCF procedure ***
                      *** Re-Reading the Fockian *** 
                      *** Removing any level shift *** 
ITER      Energy       Delta-E        Grad      Rot      Max-DP    RMS-DP
  0   -746.02770278 -746.0277027843  0.000012  0.000012  0.000047  0.000001
               *** Restarting incremental Fock matrix formation ***
                 **** Energy Check signals convergence ****
              ***Rediagonalizing the Fockian in SOSCF/NRSCF***

               *****************************************************
               *                     SUCCESS                       *
               *           SCF CONVERGED AFTER   1 CYCLES          *
               *****************************************************

Old exchange energy                            =    -18.843056433 Eh
New exchange energy                            =    -18.843034662 Eh
Exchange energy change after final integration =      0.000021771 Eh
Total energy after final integration           =   -746.027681014 Eh
Final COS-X integration done in                =    38.090 sec

----------------
TOTAL SCF ENERGY
----------------

Total Energy       :         -746.02768101 Eh          -20300.44526 eV

Components:
Nuclear Repulsion  :          898.03314031 Eh           24436.72409 eV
Electronic Energy  :        -1644.06082132 Eh          -44737.16934 eV
One Electron Energy:        -2801.13248546 Eh          -76222.69002 eV
Two Electron Energy:         1157.07166413 Eh           31485.52067 eV
Max COSX asymmetry :            0.00000377 Eh               0.00010 eV

Virial components:
Potential Energy   :        -1486.52166717 Eh          -40450.31102 eV
Kinetic Energy     :          740.49398616 Eh           20149.86576 eV
Virial Ratio       :            2.00747298


DFT components:
N(Alpha)           :       55.999954705580 electrons
N(Beta)            :       55.999954705580 electrons
N(Total)           :      111.999909411160 electrons
E(X)               :      -74.995000844864 Eh       
E(C)               :       -4.452175235175 Eh       
E(XC)              :      -79.447176080040 Eh       
DFET-embed. en.    :        0.000000000000 Eh       

---------------
SCF CONVERGENCE
---------------

  Last Energy change         ...   -5.5320e-10  Tolerance :   1.0000e-06
  Last MAX-Density change    ...    3.9968e-15  Tolerance :   1.0000e-05
  Last RMS-Density change    ...    3.7368e-17  Tolerance :   1.0000e-06
  Last Orbital Gradient      ...    8.0282e-06  Tolerance :   5.0000e-05
  Last Orbital Rotation      ...    3.0239e-05  Tolerance :   5.0000e-05

             **** THE GBW FILE WAS UPDATED (center1.gbw) ****
             **** DENSITY center1.scfp WAS UPDATED ****
             **** ENERGY FILE WAS UPDATED (center1.en.tmp) ****
             **** THE GBW FILE WAS UPDATED (center1.gbw) ****
             **** DENSITY center1.scfp WAS UPDATED ****
----------------
ORBITAL ENERGIES
----------------

  NO   OCC          E(Eh)            E(eV) 
   0   2.0000     -19.295848      -525.0667 
   1   2.0000     -19.285022      -524.7721 
   2   2.0000     -19.165978      -521.5328 
   3   2.0000     -19.125708      -520.4370 
   4   2.0000     -19.113599      -520.1075 
   5   2.0000     -19.113453      -520.1035 
   6   2.0000     -14.340393      -390.2219 
   7   2.0000     -10.467180      -284.8264 
   8   2.0000     -10.257163      -279.1116 
   9   2.0000     -10.232503      -278.4406 
  10   2.0000     -10.228349      -278.3275 
  11   2.0000     -10.225701      -278.2555 
  12   2.0000     -10.212816      -277.9048 
  13   2.0000      -1.222192       -33.2575 
  14   2.0000      -1.179897       -32.1066 
  15   2.0000      -1.031577       -28.0706 
  16   2.0000      -1.000620       -27.2283 
  17   2.0000      -0.990681       -26.9578 
  18   2.0000      -0.988037       -26.8859 
  19   2.0000      -0.915217       -24.9043 
  20   2.0000      -0.702801       -19.1242 
  21   2.0000      -0.687456       -18.7066 
  22   2.0000      -0.678590       -18.4654 
  23   2.0000      -0.675195       -18.3730 
  24   2.0000      -0.664360       -18.0781 
  25   2.0000      -0.651486       -17.7278 
  26   2.0000      -0.619928       -16.8691 
  27   2.0000      -0.610146       -16.6029 
  28   2.0000      -0.577189       -15.7061 
  29   2.0000      -0.530995       -14.4491 
  30   2.0000      -0.510478       -13.8908 
  31   2.0000      -0.499984       -13.6053 
  32   2.0000      -0.497765       -13.5449 
  33   2.0000      -0.488851       -13.3023 
  34   2.0000      -0.487370       -13.2620 
  35   2.0000      -0.473354       -12.8806 
  36   2.0000      -0.451978       -12.2989 
  37   2.0000      -0.449259       -12.2250 
  38   2.0000      -0.445254       -12.1160 
  39   2.0000      -0.438866       -11.9421 
  40   2.0000      -0.431172       -11.7328 
  41   2.0000      -0.427910       -11.6440 
  42   2.0000      -0.423308       -11.5188 
  43   2.0000      -0.414226       -11.2717 
  44   2.0000      -0.411000       -11.1839 
  45   2.0000      -0.401375       -10.9220 
  46   2.0000      -0.386542       -10.5183 
  47   2.0000      -0.336955        -9.1690 
  48   2.0000      -0.333652        -9.0791 
  49   2.0000      -0.324993        -8.8435 
  50   2.0000      -0.319331        -8.6894 
  51   2.0000      -0.279162        -7.5964 
  52   2.0000      -0.271417        -7.3856 
  53   2.0000      -0.261450        -7.1144 
  54   2.0000      -0.256997        -6.9932 
  55   2.0000      -0.200065        -5.4441 
  56   0.0000      -0.120982        -3.2921 
  57   0.0000      -0.076893        -2.0924 
  58   0.0000      -0.074268        -2.0209 
  59   0.0000      -0.019565        -0.5324 
  60   0.0000       0.033172         0.9027 
  61   0.0000       0.063018         1.7148 
  62   0.0000       0.070530         1.9192 
  63   0.0000       0.082950         2.2572 
  64   0.0000       0.088845         2.4176 
  65   0.0000       0.101156         2.7526 
  66   0.0000       0.106084         2.8867 
  67   0.0000       0.113000         3.0749 
  68   0.0000       0.121023         3.2932 
  69   0.0000       0.124548         3.3891 
  70   0.0000       0.126090         3.4311 
  71   0.0000       0.128355         3.4927 
  72   0.0000       0.132495         3.6054 
  73   0.0000       0.138193         3.7604 
  74   0.0000       0.152476         4.1491 
  75   0.0000       0.158725         4.3191 
  76   0.0000       0.175753         4.7825 
  77   0.0000       0.180899         4.9225 
  78   0.0000       0.183134         4.9833 
  79   0.0000       0.198108         5.3908 
  80   0.0000       0.205768         5.5992 
  81   0.0000       0.214456         5.8356 
  82   0.0000       0.226853         6.1730 
  83   0.0000       0.232822         6.3354 
  84   0.0000       0.237367         6.4591 
  85   0.0000       0.325314         8.8523 
  86   0.0000       0.341287         9.2869 
  87   0.0000       0.365277         9.9397 
  88   0.0000       0.395902        10.7730 
  89   0.0000       0.398991        10.8571 
  90   0.0000       0.422469        11.4960 
  91   0.0000       0.438001        11.9186 
  92   0.0000       0.447954        12.1894 
  93   0.0000       0.457706        12.4548 
  94   0.0000       0.460703        12.5364 
  95   0.0000       0.462447        12.5838 
  96   0.0000       0.466445        12.6926 
  97   0.0000       0.470274        12.7968 
  98   0.0000       0.481222        13.0947 
  99   0.0000       0.493020        13.4158 
 100   0.0000       0.494737        13.4625 
 101   0.0000       0.516889        14.0653 
 102   0.0000       0.531860        14.4726 
 103   0.0000       0.545930        14.8555 
 104   0.0000       0.551793        15.0150 
 105   0.0000       0.569109        15.4862 
 106   0.0000       0.585156        15.9229 
 107   0.0000       0.592578        16.1249 
 108   0.0000       0.619984        16.8706 
 109   0.0000       0.628504        17.1025 
 110   0.0000       0.634389        17.2626 
 111   0.0000       0.638926        17.3861 
 112   0.0000       0.644740        17.5443 
 113   0.0000       0.646152        17.5827 
 114   0.0000       0.649980        17.6869 
 115   0.0000       0.662367        18.0239 
 116   0.0000       0.666076        18.1248 
 117   0.0000       0.672068        18.2879 
 118   0.0000       0.680839        18.5266 
 119   0.0000       0.683228        18.5916 
 120   0.0000       0.689787        18.7700 
 121   0.0000       0.694401        18.8956 
 122   0.0000       0.697221        18.9724 
 123   0.0000       0.702322        19.1111 
 124   0.0000       0.705554        19.1991 
 125   0.0000       0.714927        19.4542 
 126   0.0000       0.727550        19.7976 
 127   0.0000       0.731430        19.9032 
 128   0.0000       0.748533        20.3686 
 129   0.0000       0.757796        20.6207 
 130   0.0000       0.797017        21.6879 
 131   0.0000       0.824879        22.4461 
 132   0.0000       0.862016        23.4567 
 133   0.0000       0.890518        24.2322 
 134   0.0000       0.921910        25.0864 
 135   0.0000       0.926827        25.2203 
 136   0.0000       0.934243        25.4220 
 137   0.0000       0.947307        25.7775 
 138   0.0000       0.956973        26.0406 
 139   0.0000       0.969781        26.3891 
 140   0.0000       0.988015        26.8853 
 141   0.0000       0.991621        26.9834 
 142   0.0000       1.000103        27.2142 
 143   0.0000       1.016325        27.6556 
 144   0.0000       1.030376        28.0380 
 145   0.0000       1.076082        29.2817 
 146   0.0000       1.082315        29.4513 
 147   0.0000       1.097563        29.8662 
 148   0.0000       1.124330        30.5946 
 149   0.0000       1.140551        31.0360 
 150   0.0000       1.161387        31.6030 
 151   0.0000       1.198101        32.6020 
 152   0.0000       1.203793        32.7569 
 153   0.0000       1.213607        33.0239 
 154   0.0000       1.219118        33.1739 
 155   0.0000       1.232137        33.5281 
 156   0.0000       1.241088        33.7717 
 157   0.0000       1.249308        33.9954 
 158   0.0000       1.260549        34.3013 
 159   0.0000       1.296008        35.2662 
 160   0.0000       1.297140        35.2970 
 161   0.0000       1.325517        36.0692 
 162   0.0000       1.335275        36.3347 
 163   0.0000       1.344852        36.5953 
 164   0.0000       1.352537        36.8044 
 165   0.0000       1.404744        38.2250 
 166   0.0000       1.410716        38.3875 
 167   0.0000       1.436136        39.0793 
 168   0.0000       1.440629        39.2015 
 169   0.0000       1.451995        39.5108 
 170   0.0000       1.470053        40.0022 
 171   0.0000       1.474821        40.1319 
 172   0.0000       1.495260        40.6881 
 173   0.0000       1.498056        40.7642 
 174   0.0000       1.500896        40.8414 
 175   0.0000       1.512474        41.1565 
 176   0.0000       1.512540        41.1583 
 177   0.0000       1.516603        41.2689 
 178   0.0000       1.524178        41.4750 
 179   0.0000       1.527077        41.5539 
 180   0.0000       1.544487        42.0276 
 181   0.0000       1.564767        42.5795 
 182   0.0000       1.585306        43.1384 
 183   0.0000       1.610773        43.8314 
 184   0.0000       1.623334        44.1732 
 185   0.0000       1.637715        44.5645 
 186   0.0000       1.654339        45.0168 
 187   0.0000       1.682334        45.7786 
 188   0.0000       1.704754        46.3887 
 189   0.0000       1.707730        46.4697 
 190   0.0000       1.711929        46.5840 
 191   0.0000       1.733405        47.1683 
 192   0.0000       1.737451        47.2784 
 193   0.0000       1.744721        47.4763 
 194   0.0000       1.763735        47.9937 
 195   0.0000       1.767737        48.1026 
 196   0.0000       1.772300        48.2267 
 197   0.0000       1.776628        48.3445 
 198   0.0000       1.787498        48.6403 
 199   0.0000       1.790928        48.7336 
 200   0.0000       1.812861        49.3305 
 201   0.0000       1.836073        49.9621 
 202   0.0000       1.847310        50.2679 
 203   0.0000       1.849225        50.3200 
 204   0.0000       1.858461        50.5713 
 205   0.0000       1.891823        51.4791 
 206   0.0000       1.895581        51.5814 
 207   0.0000       1.900735        51.7216 
 208   0.0000       1.913107        52.0583 
 209   0.0000       1.930059        52.5196 
 210   0.0000       1.965424        53.4819 
 211   0.0000       1.992507        54.2189 
 212   0.0000       2.004930        54.5569 
 213   0.0000       2.010332        54.7039 
 214   0.0000       2.020789        54.9885 
 215   0.0000       2.043945        55.6186 
 216   0.0000       2.079175        56.5772 
 217   0.0000       2.112484        57.4836 
 218   0.0000       2.142310        58.2952 
 219   0.0000       2.176961        59.2381 
 220   0.0000       2.184118        59.4329 
 221   0.0000       2.189172        59.5704 
 222   0.0000       2.213122        60.2221 
 223   0.0000       2.224351        60.5277 
 224   0.0000       2.272399        61.8351 
 225   0.0000       2.325151        63.2706 
 226   0.0000       2.329823        63.3977 
 227   0.0000       2.335467        63.5513 
 228   0.0000       2.339867        63.6710 
 229   0.0000       2.341962        63.7280 
 230   0.0000       2.353930        64.0537 
 231   0.0000       2.358953        64.1904 
 232   0.0000       2.380968        64.7894 
 233   0.0000       2.433008        66.2055 
 234   0.0000       2.440953        66.4217 
 235   0.0000       2.489896        67.7535 
 236   0.0000       2.584001        70.3142 
 237   0.0000       2.597325        70.6768 
 238   0.0000       2.605057        70.8872 
 239   0.0000       2.628633        71.5287 
 240   0.0000       2.632817        71.6426 
 241   0.0000       2.653227        72.1980 
 242   0.0000       2.668924        72.6251 
 243   0.0000       2.672026        72.7095 
 244   0.0000       2.674454        72.7756 
 245   0.0000       2.678700        72.8911 
 246   0.0000       2.693950        73.3061 
 247   0.0000       2.716319        73.9148 
 248   0.0000       2.748526        74.7912 
 249   0.0000       2.784700        75.7755 
 250   0.0000       2.813898        76.5701 
 251   0.0000       2.820953        76.7620 
 252   0.0000       2.827121        76.9299 
 253   0.0000       2.842296        77.3428 
 254   0.0000       2.848296        77.5061 
 255   0.0000       2.855718        77.7080 
 256   0.0000       2.863785        77.9276 
 257   0.0000       2.897001        78.8314 
 258   0.0000       2.919775        79.4511 
 259   0.0000       2.948985        80.2460 
 260   0.0000       2.955561        80.4249 
 261   0.0000       2.961843        80.5958 
 262   0.0000       2.964843        80.6775 
 263   0.0000       2.981912        81.1420 
 264   0.0000       3.034670        82.5776 
 265   0.0000       3.045515        82.8727 
 266   0.0000       3.053356        83.0860 
 267   0.0000       3.056562        83.1733 
 268   0.0000       3.063658        83.3664 
 269   0.0000       3.166838        86.1741 
 270   0.0000       3.169683        86.2515 
 271   0.0000       3.174689        86.3877 
 272   0.0000       3.246253        88.3350 
 273   0.0000       3.249310        88.4182 
 274   0.0000       3.283391        89.3456 
 275   0.0000       3.288932        89.4964 
 276   0.0000       3.305215        89.9395 
 277   0.0000       3.375755        91.8590 
 278   0.0000       3.390806        92.2685 
 279   0.0000       3.430835        93.3578 
 280   0.0000       3.450026        93.8800 
 281   0.0000       3.464887        94.2844 
 282   0.0000       3.734156       101.6115 
 283   0.0000       3.776921       102.7752 
 284   0.0000       3.799904       103.4006 
 285   0.0000       3.818574       103.9087 
 286   0.0000       3.900457       106.1368 

                    ********************************
                    * MULLIKEN POPULATION ANALYSIS *
                    ********************************

-----------------------
MULLIKEN ATOMIC CHARGES
-----------------------
   0 C :    0.365286
   1 O :   -0.194639
   2 O :   -0.165972
   3 C :    0.144308
   4 C :    0.149363
   5 C :    0.161696
   6 O :   -0.347249
   7 O :   -0.363619
   8 O :   -0.367120
   9 H :    0.160673
  10 H :    0.153423
  11 H :    0.167743
  12 H :    0.031039
  13 H :    0.006940
  14 H :   -0.018600
  15 H :    0.016776
  16 H :    0.002542
  17 H :   -0.002368
  18 C :    0.078017
  19 H :    0.019003
  20 H :   -0.013165
  21 H :   -0.010197
  22 H :    0.022574
  23 H :    0.001377
  24 H :   -0.010521
  25 C :    0.068789
  26 N :   -0.269854
  27 H :    0.125346
  28 H :    0.122328
  29 H :   -0.002898
  30 H :    0.032608
  31 H :    0.025213
  32 O :   -0.287884
  33 H :    0.199041
Sum of atomic charges:    0.0000000

--------------------------------
MULLIKEN REDUCED ORBITAL CHARGES
--------------------------------
  0 C s       :     3.009237  s :     3.009237
      pz      :     0.783452  p :     2.487138
      px      :     0.871665
      py      :     0.832022
      dz2     :     0.011217  d :     0.138338
      dxz     :     0.023380
      dyz     :     0.026914
      dx2y2   :     0.049108
      dxy     :     0.027718
  1 O s       :     3.764593  s :     3.764593
      pz      :     1.573628  p :     4.410584
      px      :     1.423623
      py      :     1.413333
      dz2     :     0.002120  d :     0.019463
      dxz     :     0.002797
      dyz     :     0.003274
      dx2y2   :     0.005413
      dxy     :     0.005859
  2 O s       :     3.770525  s :     3.770525
      pz      :     1.547393  p :     4.373197
      px      :     1.455815
      py      :     1.369989
      dz2     :     0.002511  d :     0.022249
      dxz     :     0.003371
      dyz     :     0.003474
      dx2y2   :     0.005802
      dxy     :     0.007091
  3 C s       :     2.990387  s :     2.990387
      pz      :     1.025426  p :     2.809342
      px      :     0.757631
      py      :     1.026285
      dz2     :     0.011186  d :     0.055964
      dxz     :     0.011552
      dyz     :     0.004842
      dx2y2   :     0.014440
      dxy     :     0.013943
  4 C s       :     2.994905  s :     2.994905
      pz      :     1.037582  p :     2.799182
      px      :     0.749187
      py      :     1.012412
      dz2     :     0.007368  d :     0.056551
      dxz     :     0.013179
      dyz     :     0.007942
      dx2y2   :     0.013739
      dxy     :     0.014322
  5 C s       :     2.992193  s :     2.992193
      pz      :     0.893660  p :     2.789051
      px      :     1.017255
      py      :     0.878135
      dz2     :     0.015208  d :     0.057060
      dxz     :     0.005686
      dyz     :     0.014097
      dx2y2   :     0.006984
      dxy     :     0.015085
  6 O s       :     3.746358  s :     3.746358
      pz      :     1.563328  p :     4.587533
      px      :     1.379690
      py      :     1.644514
      dz2     :     0.002171  d :     0.013358
      dxz     :     0.001855
      dyz     :     0.003139
      dx2y2   :     0.004322
      dxy     :     0.001871
  7 O s       :     3.741707  s :     3.741707
      pz      :     1.761959  p :     4.608739
      px      :     1.405846
      py      :     1.440933
      dz2     :     0.001433  d :     0.013173
      dxz     :     0.002254
      dyz     :     0.002953
      dx2y2   :     0.004963
      dxy     :     0.001570
  8 O s       :     3.742407  s :     3.742407
      pz      :     1.701689  p :     4.611542
      px      :     1.549698
      py      :     1.360156
      dz2     :     0.002505  d :     0.013171
      dxz     :     0.001923
      dyz     :     0.002546
      dx2y2   :     0.001800
      dxy     :     0.004398
  9 H s       :     0.768611  s :     0.768611
      pz      :     0.016415  p :     0.070716
      px      :     0.029937
      py      :     0.024364
 10 H s       :     0.776765  s :     0.776765
      pz      :     0.023429  p :     0.069812
      px      :     0.014828
      py      :     0.031555
 11 H s       :     0.763422  s :     0.763422
      pz      :     0.029351  p :     0.068835
      px      :     0.014197
      py      :     0.025287
 12 H s       :     0.947097  s :     0.947097
      pz      :     0.010238  p :     0.021864
      px      :     0.002162
      py      :     0.009464
 13 H s       :     0.970891  s :     0.970891
      pz      :     0.011082  p :     0.022169
      px      :     0.004676
      py      :     0.006411
 14 H s       :     0.996531  s :     0.996531
      pz      :     0.006149  p :     0.022069
      px      :     0.004908
      py      :     0.011011
 15 H s       :     0.961425  s :     0.961425
      pz      :     0.006736  p :     0.021799
      px      :     0.002454
      py      :     0.012609
 16 H s       :     0.974987  s :     0.974987
      pz      :     0.014375  p :     0.022471
      px      :     0.003203
      py      :     0.004893
 17 H s       :     0.980115  s :     0.980115
      pz      :     0.006788  p :     0.022253
      px      :     0.006710
      py      :     0.008755
 18 C s       :     3.288998  s :     3.288998
      pz      :     0.674098  p :     2.581186
      px      :     0.687881
      py      :     1.219207
      dz2     :     0.007657  d :     0.051799
      dxz     :     0.015381
      dyz     :     0.015415
      dx2y2   :     0.005325
      dxy     :     0.008020
 19 H s       :     0.959641  s :     0.959641
      pz      :     0.005014  p :     0.021356
      px      :     0.004435
      py      :     0.011907
 20 H s       :     1.005287  s :     1.005287
      pz      :     0.000860  p :     0.007878
      px      :     0.004775
      py      :     0.002242
 21 H s       :     0.973523  s :     0.973523
      pz      :     0.009841  p :     0.036673
      px      :     0.022095
      py      :     0.004737
 22 H s       :     0.955559  s :     0.955559
      pz      :     0.003973  p :     0.021867
      px      :     0.010306
      py      :     0.007588
 23 H s       :     0.976524  s :     0.976524
      pz      :     0.005323  p :     0.022099
      px      :     0.010919
      py      :     0.005857
 24 H s       :     0.988451  s :     0.988451
      pz      :     0.012229  p :     0.022070
      px      :     0.005266
      py      :     0.004575
 25 C s       :     2.980887  s :     2.980887
      pz      :     1.030757  p :     2.906588
      px      :     1.019780
      py      :     0.856052
      dz2     :     0.009123  d :     0.043736
      dxz     :     0.005562
      dyz     :     0.006800
      dx2y2   :     0.008398
      dxy     :     0.013853
 26 N s       :     3.469190  s :     3.469190
      pz      :     1.087923  p :     3.777991
      px      :     1.394393
      py      :     1.295674
      dz2     :     0.003745  d :     0.022673
      dxz     :     0.006537
      dyz     :     0.003235
      dx2y2   :     0.005897
      dxy     :     0.003258
 27 H s       :     0.825281  s :     0.825281
      pz      :     0.014986  p :     0.049373
      px      :     0.020393
      py      :     0.013994
 28 H s       :     0.818931  s :     0.818931
      pz      :     0.023287  p :     0.058741
      px      :     0.019611
      py      :     0.015844
 29 H s       :     0.980314  s :     0.980314
      pz      :     0.004831  p :     0.022584
      px      :     0.010802
      py      :     0.006950
 30 H s       :     0.945015  s :     0.945015
      pz      :     0.007546  p :     0.022377
      px      :     0.010138
      py      :     0.004693
 31 H s       :     0.952454  s :     0.952454
      pz      :     0.013255  p :     0.022333
      px      :     0.006115
      py      :     0.002964
 32 O s       :     3.740000  s :     3.740000
      pz      :     1.311810  p :     4.534869
      px      :     1.466587
      py      :     1.756472
      dz2     :     0.001271  d :     0.013015
      dxz     :     0.005479
      dyz     :     0.001391
      dx2y2   :     0.002359
      dxy     :     0.002515
 33 H s       :     0.730015  s :     0.730015
      pz      :     0.024965  p :     0.070944
      px      :     0.025556
      py      :     0.020423


                     *******************************
                     * LOEWDIN POPULATION ANALYSIS *
                     *******************************

----------------------
LOEWDIN ATOMIC CHARGES
----------------------
   0 C :    0.228657
   1 O :   -0.046926
   2 O :   -0.023852
   3 C :    0.060433
   4 C :    0.063364
   5 C :    0.063878
   6 O :   -0.167857
   7 O :   -0.180703
   8 O :   -0.185860
   9 H :    0.042639
  10 H :    0.037427
  11 H :    0.047312
  12 H :    0.023869
  13 H :    0.002868
  14 H :   -0.009132
  15 H :    0.017975
  16 H :   -0.000046
  17 H :   -0.003253
  18 C :    0.003728
  19 H :   -0.006342
  20 H :    0.022837
  21 H :   -0.020456
  22 H :    0.021038
  23 H :   -0.003820
  24 H :   -0.004359
  25 C :    0.011069
  26 N :   -0.094289
  27 H :    0.055065
  28 H :    0.033086
  29 H :    0.004821
  30 H :    0.026676
  31 H :    0.023474
  32 O :   -0.111851
  33 H :    0.068530

-------------------------------
LOEWDIN REDUCED ORBITAL CHARGES
-------------------------------
  0 C s       :     2.824376  s :     2.824376
      pz      :     0.800970  p :     2.652042
      px      :     0.927212
      py      :     0.923860
      dz2     :     0.026775  d :     0.294925
      dxz     :     0.047343
      dyz     :     0.052981
      dx2y2   :     0.096123
      dxy     :     0.071704
  1 O s       :     3.518851  s :     3.518851
      pz      :     1.533656  p :     4.493670
      px      :     1.484864
      py      :     1.475150
      dz2     :     0.004510  d :     0.034406
      dxz     :     0.003918
      dyz     :     0.004942
      dx2y2   :     0.007371
      dxy     :     0.013666
  2 O s       :     3.520889  s :     3.520889
      pz      :     1.520138  p :     4.464348
      px      :     1.493566
      py      :     1.450644
      dz2     :     0.005621  d :     0.038615
      dxz     :     0.004423
      dyz     :     0.005098
      dx2y2   :     0.007174
      dxy     :     0.016299
  3 C s       :     2.840488  s :     2.840488
      pz      :     1.074717  p :     2.973550
      px      :     0.838129
      py      :     1.060703
      dz2     :     0.026858  d :     0.125529
      dxz     :     0.025650
      dyz     :     0.011562
      dx2y2   :     0.032040
      dxy     :     0.029419
  4 C s       :     2.841448  s :     2.841448
      pz      :     1.073842  p :     2.969454
      px      :     0.831417
      py      :     1.064195
      dz2     :     0.016404  d :     0.125734
      dxz     :     0.027977
      dyz     :     0.020151
      dx2y2   :     0.029910
      dxy     :     0.031291
  5 C s       :     2.840493  s :     2.840493
      pz      :     0.971662  p :     2.968271
      px      :     1.062836
      py      :     0.933773
      dz2     :     0.036696  d :     0.127357
      dxz     :     0.012039
      dyz     :     0.029653
      dx2y2   :     0.012679
      dxy     :     0.036290
  6 O s       :     3.464092  s :     3.464092
      pz      :     1.586258  p :     4.680029
      px      :     1.435128
      py      :     1.658643
      dz2     :     0.003761  d :     0.023736
      dxz     :     0.002807
      dyz     :     0.006536
      dx2y2   :     0.007863
      dxy     :     0.002770
  7 O s       :     3.461565  s :     3.461565
      pz      :     1.759076  p :     4.695658
      px      :     1.451458
      py      :     1.485124
      dz2     :     0.002006  d :     0.023480
      dxz     :     0.003202
      dyz     :     0.005665
      dx2y2   :     0.009711
      dxy     :     0.002897
  8 O s       :     3.466289  s :     3.466289
      pz      :     1.702904  p :     4.696342
      px      :     1.591223
      py      :     1.402215
      dz2     :     0.004152  d :     0.023228
      dxz     :     0.002207
      dyz     :     0.005147
      dx2y2   :     0.002971
      dxy     :     0.008752
  9 H s       :     0.759652  s :     0.759652
      pz      :     0.041783  p :     0.197710
      px      :     0.092831
      py      :     0.063095
 10 H s       :     0.768769  s :     0.768769
      pz      :     0.066157  p :     0.193804
      px      :     0.034409
      py      :     0.093237
 11 H s       :     0.763555  s :     0.763555
      pz      :     0.082754  p :     0.189133
      px      :     0.033476
      py      :     0.072903
 12 H s       :     0.913350  s :     0.913350
      pz      :     0.028588  p :     0.062781
      px      :     0.008390
      py      :     0.025802
 13 H s       :     0.931852  s :     0.931852
      pz      :     0.032297  p :     0.065279
      px      :     0.016068
      py      :     0.016915
 14 H s       :     0.944872  s :     0.944872
      pz      :     0.015728  p :     0.064260
      px      :     0.016425
      py      :     0.032108
 15 H s       :     0.919407  s :     0.919407
      pz      :     0.017471  p :     0.062618
      px      :     0.008935
      py      :     0.036212
 16 H s       :     0.933630  s :     0.933630
      pz      :     0.042680  p :     0.066415
      px      :     0.010967
      py      :     0.012769
 17 H s       :     0.937280  s :     0.937280
      pz      :     0.018120  p :     0.065973
      px      :     0.022901
      py      :     0.024952
 18 C s       :     3.100756  s :     3.100756
      pz      :     0.752576  p :     2.787096
      px      :     0.771229
      py      :     1.263291
      dz2     :     0.013993  d :     0.108421
      dxz     :     0.033650
      dyz     :     0.032681
      dx2y2   :     0.007674
      dxy     :     0.020423
 19 H s       :     0.934285  s :     0.934285
      pz      :     0.018377  p :     0.072057
      px      :     0.012510
      py      :     0.041171
 20 H s       :     0.942139  s :     0.942139
      pz      :     0.002356  p :     0.035023
      px      :     0.023661
      py      :     0.009007
 21 H s       :     0.856587  s :     0.856587
      pz      :     0.039320  p :     0.163869
      px      :     0.106380
      py      :     0.018169
 22 H s       :     0.916446  s :     0.916446
      pz      :     0.010388  p :     0.062516
      px      :     0.029233
      py      :     0.022895
 23 H s       :     0.938905  s :     0.938905
      pz      :     0.014567  p :     0.064915
      px      :     0.031538
      py      :     0.018811
 24 H s       :     0.939926  s :     0.939926
      pz      :     0.037476  p :     0.064433
      px      :     0.012968
      py      :     0.013989
 25 C s       :     2.830807  s :     2.830807
      pz      :     1.064423  p :     3.056704
      px      :     1.065221
      py      :     0.927060
      dz2     :     0.022132  d :     0.101421
      dxz     :     0.013252
      dyz     :     0.014199
      dx2y2   :     0.019316
      dxy     :     0.032522
 26 N s       :     3.147733  s :     3.147733
      pz      :     1.153680  p :     3.898825
      px      :     1.426795
      py      :     1.318350
      dz2     :     0.009716  d :     0.047731
      dxz     :     0.014145
      dyz     :     0.007184
      dx2y2   :     0.010635
      dxy     :     0.006050
 27 H s       :     0.811572  s :     0.811572
      pz      :     0.031197  p :     0.133363
      px      :     0.066918
      py      :     0.035248
 28 H s       :     0.800387  s :     0.800387
      pz      :     0.063613  p :     0.166526
      px      :     0.063588
      py      :     0.039325
 29 H s       :     0.929174  s :     0.929174
      pz      :     0.012738  p :     0.066004
      px      :     0.031106
      py      :     0.022160
 30 H s       :     0.909245  s :     0.909245
      pz      :     0.021044  p :     0.064079
      px      :     0.028141
      py      :     0.014894
 31 H s       :     0.912584  s :     0.912584
      pz      :     0.038044  p :     0.063941
      px      :     0.015897
      py      :     0.010001
 32 O s       :     3.468687  s :     3.468687
      pz      :     1.358649  p :     4.620241
      px      :     1.523212
      py      :     1.738380
      dz2     :     0.002103  d :     0.022923
      dxz     :     0.010908
      dyz     :     0.003115
      dx2y2   :     0.002920
      dxy     :     0.003878
 33 H s       :     0.739606  s :     0.739606
      pz      :     0.062200  p :     0.191864
      px      :     0.078243
      py      :     0.051421


                      *****************************
                      * MAYER POPULATION ANALYSIS *
                      *****************************

  NA   - Mulliken gross atomic population
  ZA   - Total nuclear charge
  QA   - Mulliken gross atomic charge
  VA   - Mayer's total valence
  BVA  - Mayer's bonded valence
  FA   - Mayer's free valence

  ATOM       NA         ZA         QA         VA         BVA        FA
  0 C      5.6347     6.0000     0.3653     4.2042     4.2042     0.0000
  1 O      8.1946     8.0000    -0.1946     2.3357     2.3357    -0.0000
  2 O      8.1660     8.0000    -0.1660     2.3849     2.3849    -0.0000
  3 C      5.8557     6.0000     0.1443     3.9421     3.9421    -0.0000
  4 C      5.8506     6.0000     0.1494     3.9684     3.9684     0.0000
  5 C      5.8383     6.0000     0.1617     3.9693     3.9693     0.0000
  6 O      8.3472     8.0000    -0.3472     2.0843     2.0843    -0.0000
  7 O      8.3636     8.0000    -0.3636     2.0658     2.0658    -0.0000
  8 O      8.3671     8.0000    -0.3671     2.0533     2.0533     0.0000
  9 H      0.8393     1.0000     0.1607     1.0680     1.0680    -0.0000
 10 H      0.8466     1.0000     0.1534     1.0654     1.0654    -0.0000
 11 H      0.8323     1.0000     0.1677     1.0496     1.0496     0.0000
 12 H      0.9690     1.0000     0.0310     0.9890     0.9890    -0.0000
 13 H      0.9931     1.0000     0.0069     0.9904     0.9904     0.0000
 14 H      1.0186     1.0000    -0.0186     0.9739     0.9739    -0.0000
 15 H      0.9832     1.0000     0.0168     0.9864     0.9864     0.0000
 16 H      0.9975     1.0000     0.0025     1.0133     1.0133    -0.0000
 17 H      1.0024     1.0000    -0.0024     0.9987     0.9987    -0.0000
 18 C      5.9220     6.0000     0.0780     3.2359     3.2359     0.0000
 19 H      0.9810     1.0000     0.0190     0.9653     0.9653     0.0000
 20 H      1.0132     1.0000    -0.0132     0.9635     0.9635     0.0000
 21 H      1.0102     1.0000    -0.0102     1.0477     1.0477     0.0000
 22 H      0.9774     1.0000     0.0226     0.9859     0.9859     0.0000
 23 H      0.9986     1.0000     0.0014     0.9851     0.9851    -0.0000
 24 H      1.0105     1.0000    -0.0105     0.9770     0.9770    -0.0000
 25 C      5.9312     6.0000     0.0688     4.0122     4.0122     0.0000
 26 N      7.2699     7.0000    -0.2699     3.1795     3.1795     0.0000
 27 H      0.8747     1.0000     0.1253     0.9871     0.9871    -0.0000
 28 H      0.8777     1.0000     0.1223     0.9997     0.9997    -0.0000
 29 H      1.0029     1.0000    -0.0029     0.9957     0.9957     0.0000
 30 H      0.9674     1.0000     0.0326     0.9907     0.9907    -0.0000
 31 H      0.9748     1.0000     0.0252     0.9894     0.9894    -0.0000
 32 O      8.2879     8.0000    -0.2879     2.1914     2.1914     0.0000
 33 H      0.8010     1.0000     0.1990     1.0487     1.0487    -0.0000

  Mayer bond orders larger than 0.100000
B(  0-C ,  1-O ) :   1.9050 B(  0-C ,  2-O ) :   1.9848 B(  0-C , 26-N ) :   0.2093 
B(  1-O ,  2-O ) :   0.2142 B(  3-C ,  7-O ) :   1.0221 B(  3-C , 15-H ) :   0.9764 
B(  3-C , 16-H ) :   0.9655 B(  3-C , 17-H ) :   0.9650 B(  4-C ,  6-O ) :   1.0303 
B(  4-C , 12-H ) :   0.9801 B(  4-C , 13-H ) :   0.9690 B(  4-C , 14-H ) :   0.9679 
B(  5-C ,  8-O ) :   1.0320 B(  5-C , 22-H ) :   0.9750 B(  5-C , 23-H ) :   0.9669 
B(  5-C , 24-H ) :   0.9709 B(  6-O , 11-H ) :   0.9617 B(  7-O , 10-H ) :   0.9691 
B(  8-O ,  9-H ) :   0.9663 B( 18-C , 19-H ) :   0.9309 B( 18-C , 20-H ) :   0.4690 
B( 18-C , 21-H ) :   0.6632 B( 18-C , 32-O ) :   1.1207 B( 20-H , 21-H ) :   0.3846 
B( 25-C , 26-N ) :   1.0563 B( 25-C , 29-H ) :   0.9628 B( 25-C , 30-H ) :   0.9777 
B( 25-C , 31-H ) :   0.9769 B( 26-N , 27-H ) :   0.9429 B( 26-N , 28-H ) :   0.9215 
B( 32-O , 33-H ) :   0.9269 

-------
TIMINGS
-------

Total SCF time: 0 days 0 hours 1 min 17 sec 

Total time                  ....      77.607 sec
Sum of individual times     ....      77.244 sec  ( 99.5%)

Fock matrix formation       ....      71.647 sec  ( 92.3%)
  Split-RI-J                ....       3.377 sec  (  4.7% of F)
  Chain of spheres X        ....      65.150 sec  ( 90.9% of F)
  XC integration            ....       3.101 sec  (  4.3% of F)
    Basis function eval.    ....       1.403 sec  ( 45.2% of XC)
    Density eval.           ....       0.823 sec  ( 26.5% of XC)
    XC-Functional eval.     ....       0.204 sec  (  6.6% of XC)
    XC-Potential eval.      ....       0.549 sec  ( 17.7% of XC)
Diagonalization             ....       0.018 sec  (  0.0%)
Density matrix formation    ....       0.007 sec  (  0.0%)
Population analysis         ....       0.036 sec  (  0.0%)
Initial guess               ....       0.017 sec  (  0.0%)
Orbital Transformation      ....       0.000 sec  (  0.0%)
Orbital Orthonormalization  ....       0.010 sec  (  0.0%)
DIIS solution               ....       0.005 sec  (  0.0%)
SOSCF solution              ....       0.017 sec  (  0.0%)
Grid generation             ....       5.497 sec  (  7.1%)

Maximum memory used throughout the entire SCF-calculation: 98.7 MB

-------------------------   --------------------
FINAL SINGLE POINT ENERGY      -746.027681013611
-------------------------   --------------------


                            ***************************************
                            *     ORCA property calculations      *
                            ***************************************

                                    ---------------------
                                    Active property flags
                                    ---------------------
   (+) Dipole Moment


------------------------------------------------------------------------------
                       ORCA ELECTRIC PROPERTIES CALCULATION
------------------------------------------------------------------------------

Dipole Moment Calculation                       ... on
Quadrupole Moment Calculation                   ... off
Polarizability Calculation                      ... off
GBWName                                         ... center1.gbw
Electron density                                ... center1.scfp
The origin for moment calculation is the CENTER OF MASS  = ( 4.357612,  4.671764 -6.720636)

-------------
DIPOLE MOMENT
-------------
                                X             Y             Z
Electronic contribution:      3.97927       4.43739       0.34068
Nuclear contribution   :     -3.63313      -5.40863      -1.15194
                        -----------------------------------------
Total Dipole Moment    :      0.34613      -0.97124      -0.81125
                        -----------------------------------------
Magnitude (a.u.)       :      1.31196
Magnitude (Debye)      :      3.33474



--------------------
Rotational spectrum 
--------------------
 
Rotational constants in cm-1:     0.020694     0.010511     0.009007 
Rotational constants in MHz :   620.382113   315.107783   270.014464 

 Dipole components along the rotational axes: 
x,y,z [a.u.] :    -1.175958     0.199268    -0.546492 
x,y,z [Debye]:    -2.989048     0.506500    -1.389073 

 

-------------------------------------------------------------------------------
                               ORCA SCF HESSIAN
-------------------------------------------------------------------------------

                   --------- SHARK INITIALIZATION DONE ---------

Hessian of the Kohn-Sham DFT energy:
Kohn-Sham wavefunction type                      ... RKS
Hartree-Fock exchange scaling                    ...    0.200
Number of operators                              ...    1
Number of atoms                                  ...   34
Basis set dimensions                             ...  287
Integral neglect threshold                       ... 1.0e-10
Integral primitive cutoff                        ... 1.0e-11

Setting up DFT Hessian calculations              ... 

HESS GRID
---------

General Integration Accuracy     IntAcc      ... 4.629
Radial Grid Type                 RadialGrid  ... OptM3 with GC (2021)
[...]
     50       0.000244  -0.000400   0.000642   0.002369   0.003936  -0.003096
     51       0.000169  -0.000138   0.000639   0.010141   0.001962  -0.003729
     52       0.000146  -0.000034   0.000338   0.003757  -0.000601  -0.000813
     53      -0.000078   0.000103  -0.000072  -0.003346   0.000979   0.001204
     54       0.000115   0.000133   0.000105   0.000158  -0.000287   0.000517
     55       0.000173   0.000014  -0.000121   0.000587  -0.000712   0.000687
     56      -0.000039   0.000312   0.000313  -0.002147   0.001540  -0.001212
     57      -0.000253   0.000115  -0.001801   0.009081  -0.006244   0.004033
     58      -0.001071   0.000215  -0.001700   0.009425  -0.005615   0.003277
     59      -0.000453  -0.000237  -0.000495   0.006429  -0.002888   0.001834
     60       0.000570  -0.000815   0.001753  -0.005114   0.003810  -0.001989
     61       0.000238  -0.000260   0.001297  -0.005466   0.004373  -0.003147
     62      -0.000189   0.000768  -0.001033   0.003530  -0.002829   0.001773
     63      -0.000886   0.001122  -0.000240  -0.003062   0.003033  -0.003792
     64      -0.000836   0.000733   0.000223  -0.003835   0.003806  -0.003793
     65       0.000971  -0.000760   0.000219   0.002865  -0.002660   0.003039
     66      -0.001177   0.002449   0.027816   0.000389  -0.000499   0.000809
     67       0.001173  -0.002466  -0.027598  -0.000364   0.000501  -0.000936
     68      -0.000041  -0.000543  -0.003735  -0.000077   0.000122  -0.000154
     69       0.005145  -0.001797  -0.016727   0.000073   0.000204  -0.001388
     70       0.003126  -0.001403  -0.013983  -0.000043   0.000343  -0.001439
     71      -0.002503   0.000757   0.002458  -0.000089  -0.000027   0.000581
     72      -0.000766  -0.000696  -0.004345  -0.000080   0.000145   0.000001
     73       0.001165   0.000921   0.000545   0.000078  -0.000218   0.000054
     74      -0.003343  -0.004179  -0.019196  -0.000491   0.001186  -0.001434
     75       0.009459  -0.000945  -0.000057  -0.000046   0.000169  -0.000433
     76       0.000821   0.000863  -0.000529  -0.000094   0.000210  -0.000500
     77      -0.004922  -0.003012  -0.000029   0.000033  -0.000007  -0.000209
     78       0.056297  -0.012714   0.001773   0.000075  -0.000443   0.001096
     79       0.022941   0.009810  -0.000007   0.000085  -0.000104   0.000359
     80      -0.023238  -0.072735   0.004772   0.000155  -0.000586   0.001436
     81      -0.748577  -0.186397   0.006562   0.000208  -0.000601   0.001867
     82      -0.338763  -0.063986   0.000833  -0.000367   0.000018   0.000632
     83       0.501516   0.096691  -0.006847  -0.000636   0.000607  -0.003674
     84      -0.073065   0.428398  -0.031566  -0.001312   0.003617  -0.008098
     85       0.002757  -0.018667  -0.003163  -0.001098   0.001088  -0.002916
     86      -0.225466   0.869433  -0.054953  -0.001164   0.005307  -0.011127
     87      -0.033981   0.003193  -0.001725  -0.000349   0.000523  -0.001654
     88       0.018849   0.000998   0.002898   0.000526  -0.001254   0.003641
     89      -0.003210   0.002179   0.000339   0.000022  -0.000223   0.000640
     90      -0.074892  -0.009180   0.001326   0.000578  -0.001148   0.002071
     91      -0.043762  -0.008034   0.001508   0.000537  -0.000888   0.001589
     92       0.059919   0.006221  -0.000965  -0.000312   0.000707  -0.001391
     93       0.002491   0.012370  -0.000167   0.000009  -0.000082   0.000772
     94       0.002057   0.002563   0.000552   0.000101  -0.000071   0.000417
     95       0.003750   0.039001   0.000019  -0.000009  -0.000314   0.002269
     96       0.000043   0.000347  -0.003356   0.026985  -0.022442   0.020611
     97       0.000018   0.000134  -0.001534   0.013209  -0.010892   0.010145
     98       0.000067  -0.000298   0.003146  -0.026276   0.021849  -0.020361
     99      -0.000551  -0.003921   0.052660  -0.439205   0.367520  -0.342492
    100      -0.000114  -0.001241   0.026646  -0.219854   0.182108  -0.169642
    101      -0.000279   0.005398  -0.052902   0.435579  -0.361000   0.336257


-----------
IR SPECTRUM
-----------

 Mode   freq       eps      Int      T**2         TX        TY        TZ
       cm**-1   L/(mol*cm) km/mol    a.u.
----------------------------------------------------------------------------
 25:     40.59   0.000030    0.15  0.000228  (-0.010574 -0.005588 -0.009237)
 26:     44.56   0.000186    0.94  0.001305  ( 0.017624 -0.015293 -0.027586)
 27:     67.24   0.000968    4.89  0.004493  (-0.003056 -0.058206 -0.033102)
 28:     71.80   0.000260    1.31  0.001130  ( 0.026990 -0.015001 -0.013280)
 29:    114.36   0.000616    3.12  0.001682  ( 0.012156  0.014206 -0.036506)
 30:    154.81   0.000752    3.80  0.001517  (-0.019475  0.006303  0.033133)
 31:    172.53   0.000121    0.61  0.000219  ( 0.000719  0.008810 -0.011864)
 32:    203.22   0.000086    0.44  0.000132  (-0.009047 -0.003178  0.006345)
 33:    265.78   0.000182    0.92  0.000213  ( 0.008940 -0.010811 -0.004075)
 34:    293.56   0.000252    1.28  0.000268  ( 0.009201  0.006755 -0.011753)
 35:    352.33   0.000909    4.59  0.000805  ( 0.025437 -0.004286  0.011807)
 36:    371.37   0.002668   13.48  0.002242  ( 0.028949 -0.014081 -0.034718)
 37:    475.32   0.022165  112.01  0.014552  (-0.111739 -0.009364  0.044484)
 38:    517.05   0.025092  126.81  0.015144  ( 0.007214 -0.097855 -0.074275)
 39:    635.29   0.017293   87.39  0.008494  (-0.021682  0.041420  0.079427)
 40:    655.40   0.024203  122.31  0.011524  ( 0.024149 -0.040902 -0.096270)
 41:    719.45   0.026324  133.03  0.011418  (-0.039512 -0.052889  0.084023)
 42:    719.98   0.001059    5.35  0.000459  ( 0.018690  0.009634 -0.004093)
 43:    734.74   0.022974  116.10  0.009758  (-0.027882 -0.093339  0.016375)
 44:    769.23   0.003203   16.18  0.001299  ( 0.029235 -0.017285 -0.012074)
 45:    785.56   0.008650   43.71  0.003436  (-0.022015 -0.018727  0.050996)
 46:    999.51   0.025333  128.02  0.007909  ( 0.018731 -0.019836  0.084647)
 47:   1052.71   0.008251   41.70  0.002446  ( 0.024385 -0.042576  0.006215)
 48:   1068.54   0.008154   41.21  0.002381  (-0.042494 -0.011652  0.020972)
 49:   1074.92   0.017538   88.63  0.005091  (-0.015717 -0.055519 -0.041976)
 50:   1083.71   0.025672  129.73  0.007392  (-0.084360  0.016293 -0.003215)
 51:   1109.73   0.000468    2.37  0.000132  ( 0.007106  0.008171 -0.003805)
 52:   1110.24   0.000956    4.83  0.000269  ( 0.001655 -0.016218  0.001755)
 53:   1111.02   0.000095    0.48  0.000027  (-0.004212  0.002650  0.001397)
 54:   1121.07   0.000926    4.68  0.000258  (-0.009721  0.012423  0.002967)
 55:   1147.82   0.000311    1.57  0.000084  (-0.005355 -0.001145  0.007377)
 56:   1151.18   0.000296    1.50  0.000080  ( 0.003882  0.007968  0.001323)
 57:   1160.03   0.013090   66.15  0.003521  ( 0.020123  0.050167  0.024491)
 58:   1169.26   0.000134    0.68  0.000036  ( 0.002138  0.004495 -0.003305)
 59:   1208.49   0.002816   14.23  0.000727  (-0.025509 -0.004479 -0.007513)
 60:   1214.10   0.009805   49.55  0.002520  (-0.020502  0.030671 -0.034045)
 61:   1273.25   0.005629   28.45  0.001380  (-0.035098 -0.002898 -0.011808)
 62:   1285.73   0.008167   41.27  0.001982  ( 0.012676  0.018115 -0.038644)
 63:   1424.95   0.000799    4.04  0.000175  (-0.004106  0.011968  0.003870)
 64:   1426.60   0.001398    7.06  0.000306  ( 0.011707  0.010159 -0.008095)
 65:   1429.36   0.004242   21.44  0.000926  ( 0.007394 -0.024784 -0.016037)
 66:   1442.67   0.001945    9.83  0.000421  (-0.018218  0.008116  0.004798)
 67:   1443.74   0.002359   11.92  0.000510  ( 0.003297 -0.017572 -0.013792)
 68:   1445.97   0.005271   26.64  0.001138  (-0.032767  0.007725 -0.002074)
 69:   1452.16   0.000886    4.48  0.000190  (-0.005341 -0.009388  0.008586)
 70:   1454.22   0.000279    1.41  0.000060  ( 0.006447 -0.003906  0.001758)
 71:   1457.40   0.001304    6.59  0.000279  ( 0.014582  0.005264  0.006228)
 72:   1463.72   0.000774    3.91  0.000165  (-0.009046  0.005953 -0.006914)
 73:   1469.46   0.000391    1.98  0.000083  ( 0.003916  0.000048  0.008229)
 74:   1472.04   0.001318    6.66  0.000279  ( 0.011673  0.010896  0.004943)
 75:   1479.89   0.003229   16.32  0.000681  (-0.017685  0.019109 -0.001721)
 76:   1493.17   0.001277    6.45  0.000267  (-0.016029  0.002992  0.000961)
 77:   1495.38   0.007455   37.68  0.001556  ( 0.030841  0.014109  0.020138)
 78:   1722.13   0.000944    4.77  0.000171  (-0.005122 -0.001269 -0.011964)
 79:   1814.16   0.045979  232.36  0.007909  ( 0.065826  0.021183 -0.055922)
 80:   1966.91   0.058794  297.12  0.009328  ( 0.018194 -0.087749 -0.036015)
 81:   2176.84   0.170837  863.34  0.024491  (-0.103432  0.112213  0.034650)
 82:   2929.26   0.036666  185.29  0.003906  (-0.058363 -0.000452  0.022353)
 83:   3078.54   0.007819   39.51  0.000793  ( 0.010920  0.016074  0.020371)
 84:   3079.35   0.011026   55.72  0.001117  ( 0.032574 -0.004363 -0.006103)
 85:   3086.75   0.014450   73.02  0.001461  ( 0.001504  0.034280  0.016836)
 86:   3090.75   0.008968   45.32  0.000905  (-0.028259  0.010299  0.000914)
 87:   3154.67   0.023233  117.41  0.002298  (-0.006628  0.024653  0.040577)
 88:   3165.03   0.013277   67.10  0.001309  (-0.018984 -0.020453  0.023029)
 89:   3166.31   0.012472   63.03  0.001229  ( 0.003239 -0.027588 -0.021393)
 90:   3171.88   0.006451   32.60  0.000635  (-0.021223  0.009340 -0.009853)
 91:   3185.01   0.007532   38.06  0.000738  ( 0.008467  0.015197 -0.020864)
 92:   3194.41   0.003082   15.57  0.000301  (-0.005577 -0.003812  0.015981)
 93:   3199.42   0.009026   45.62  0.000880  (-0.026232  0.013367 -0.003692)
 94:   3201.14   0.006592   33.31  0.000643  ( 0.004459  0.021720  0.012288)
 95:   3204.22   0.005639   28.50  0.000549  ( 0.004482 -0.015687  0.016823)
 96:   3270.07   0.001936    9.79  0.000185  (-0.011333 -0.006642 -0.003498)
 97:   3436.99   0.006725   33.99  0.000611  ( 0.014282  0.006692  0.019023)
 98:   3490.86   0.113164  571.88  0.010116  ( 0.077647 -0.061648 -0.016934)
 99:   3532.01   0.058359  294.92  0.005156  (-0.026678 -0.060900  0.027123)
100:   3540.25   0.108282  547.21  0.009545  ( 0.043853  0.019494 -0.085098)
101:   3564.42   0.052636  266.00  0.004608  (-0.031246  0.052800  0.029055)

* The epsilon (eps) is given for a Dirac delta lineshape.
** The dipole moment derivative (T) already includes vibrational overlap.

The first frequency considered to be a vibration is 25
The total number of vibrations considered is 77


--------------------------
THERMOCHEMISTRY AT 298.15K
--------------------------

Temperature         ... 298.15 K
Pressure            ... 1.00 atm
Total Mass          ... 203.23 AMU

Throughout the following assumptions are being made:
  (1) The electronic state is orbitally nondegenerate
  (2) There are no thermally accessible electronically excited states
  (3) Hindered rotations indicated by low frequency modes are not
      treated as such but are treated as vibrations and this may
      cause some error
  (4) All equations used are the standard statistical mechanics
      equations for an ideal gas
  (5) All vibrations are strictly harmonic

freq.      40.59  E(vib)   ...       0.54 
freq.      44.56  E(vib)   ...       0.53 
freq.      67.24  E(vib)   ...       0.50 
freq.      71.80  E(vib)   ...       0.50 
freq.     114.36  E(vib)   ...       0.44 
freq.     154.81  E(vib)   ...       0.40 
freq.     172.53  E(vib)   ...       0.38 
freq.     203.22  E(vib)   ...       0.35 
freq.     265.78  E(vib)   ...       0.29 
freq.     293.56  E(vib)   ...       0.27 
freq.     352.33  E(vib)   ...       0.23 
freq.     371.37  E(vib)   ...       0.21 
freq.     475.32  E(vib)   ...       0.15 
freq.     517.05  E(vib)   ...       0.13 
freq.     635.29  E(vib)   ...       0.09 
freq.     655.40  E(vib)   ...       0.08 
freq.     719.45  E(vib)   ...       0.07 
freq.     719.98  E(vib)   ...       0.07 
freq.     734.74  E(vib)   ...       0.06 
freq.     769.23  E(vib)   ...       0.06 
freq.     785.56  E(vib)   ...       0.05 
freq.     999.51  E(vib)   ...       0.02 
freq.    1052.71  E(vib)   ...       0.02 
freq.    1068.54  E(vib)   ...       0.02 
freq.    1074.92  E(vib)   ...       0.02 
freq.    1083.71  E(vib)   ...       0.02 
freq.    1109.73  E(vib)   ...       0.02 
freq.    1110.24  E(vib)   ...       0.02 
freq.    1111.02  E(vib)   ...       0.01 
freq.    1121.07  E(vib)   ...       0.01 
freq.    1147.82  E(vib)   ...       0.01 
freq.    1151.18  E(vib)   ...       0.01 
freq.    1160.03  E(vib)   ...       0.01 
freq.    1169.26  E(vib)   ...       0.01 
freq.    1208.49  E(vib)   ...       0.01 
freq.    1214.10  E(vib)   ...       0.01 
freq.    1273.25  E(vib)   ...       0.01 
freq.    1285.73  E(vib)   ...       0.01 
freq.    1424.95  E(vib)   ...       0.00 
freq.    1426.60  E(vib)   ...       0.00 
freq.    1429.36  E(vib)   ...       0.00 
freq.    1442.67  E(vib)   ...       0.00 
freq.    1443.74  E(vib)   ...       0.00 
freq.    1445.97  E(vib)   ...       0.00 
freq.    1452.16  E(vib)   ...       0.00 
freq.    1454.22  E(vib)   ...       0.00 
freq.    1457.40  E(vib)   ...       0.00 
freq.    1463.72  E(vib)   ...       0.00 
freq.    1469.46  E(vib)   ...       0.00 
freq.    1472.04  E(vib)   ...       0.00 
freq.    1479.89  E(vib)   ...       0.00 
freq.    1493.17  E(vib)   ...       0.00 
freq.    1495.38  E(vib)   ...       0.00 
freq.    1722.13  E(vib)   ...       0.00 
freq.    1814.16  E(vib)   ...       0.00 
freq.    1966.91  E(vib)   ...       0.00 
freq.    2176.84  E(vib)   ...       0.00 
freq.    2929.26  E(vib)   ...       0.00 
freq.    3078.54  E(vib)   ...       0.00 
freq.    3079.35  E(vib)   ...       0.00 
freq.    3086.75  E(vib)   ...       0.00 
freq.    3090.75  E(vib)   ...       0.00 
freq.    3154.67  E(vib)   ...       0.00 
freq.    3165.03  E(vib)   ...       0.00 
freq.    3166.31  E(vib)   ...       0.00 
freq.    3171.88  E(vib)   ...       0.00 
freq.    3185.01  E(vib)   ...       0.00 
freq.    3194.41  E(vib)   ...       0.00 
freq.    3199.42  E(vib)   ...       0.00 
freq.    3201.14  E(vib)   ...       0.00 
freq.    3204.22  E(vib)   ...       0.00 
freq.    3270.07  E(vib)   ...       0.00 
freq.    3436.99  E(vib)   ...       0.00 
freq.    3490.86  E(vib)   ...       0.00 
freq.    3532.01  E(vib)   ...       0.00 
freq.    3540.25  E(vib)   ...       0.00 
freq.    3564.42  E(vib)   ...       0.00 

------------
INNER ENERGY
------------

The inner energy is: U= E(el) + E(ZPE) + E(vib) + E(rot) + E(trans)
    E(el)   - is the total energy from the electronic structure calculation
              = E(kin-el) + E(nuc-el) + E(el-el) + E(nuc-nuc)
    E(ZPE)  - the the zero temperature vibrational energy from the frequency calculation
    E(vib)  - the the finite temperature correction to E(ZPE) due to population
              of excited vibrational states
    E(rot)  - is the rotational thermal energy
    E(trans)- is the translational thermal energy

Summary of contributions to the inner energy U:
Electronic energy                ...   -746.02768101 Eh
Zero point energy                ...      0.27742982 Eh     174.09 kcal/mol
Thermal vibrational correction   ...      0.00906492 Eh       5.69 kcal/mol
Thermal rotational correction    ...      0.00141627 Eh       0.89 kcal/mol
Thermal translational correction ...      0.00141627 Eh       0.89 kcal/mol
-----------------------------------------------------------------------
Total thermal energy                   -745.73835374 Eh


Summary of corrections to the electronic energy:
(perhaps to be used in another calculation)
Total thermal correction                  0.01189746 Eh       7.47 kcal/mol
Non-thermal (ZPE) correction              0.27742982 Eh     174.09 kcal/mol
-----------------------------------------------------------------------
Total correction                          0.28932728 Eh     181.56 kcal/mol


--------
ENTHALPY
--------

The enthalpy is H = U + kB*T
                kB is Boltzmann's constant
Total free energy                 ...   -745.73835374 Eh 
Thermal Enthalpy correction       ...      0.00094421 Eh       0.59 kcal/mol
-----------------------------------------------------------------------
Total Enthalpy                    ...   -745.73740953 Eh


Note: Only C1 symmetry has been detected, increase convergence thresholds 
      if your molecule has a higher symmetry. Symmetry factor of 1.0 is   
      used for the rotational entropy correction. 
 

Note: Rotational entropy computed according to Herzberg 
Infrared and Raman Spectra, Chapter V,1, Van Nostrand Reinhold, 1945 
Point Group:  C1, Symmetry Number:   1  
Rotational constants in cm-1:     0.020694     0.010511     0.009007 

Vibrational entropy computed according to the QRRHO of S. Grimme
Chem.Eur.J. 2012 18 9955


-------
ENTROPY
-------

The entropy contributions are T*S = T*(S(el)+S(vib)+S(rot)+S(trans))
     S(el)   - electronic entropy
     S(vib)  - vibrational entropy
     S(rot)  - rotational entropy
     S(trans)- translational entropy
The entropies will be listed as multiplied by the temperature to get
units of energy

Electronic entropy                ...      0.00000000 Eh      0.00 kcal/mol
Vibrational entropy               ...      0.01628946 Eh     10.22 kcal/mol
Rotational entropy                ...      0.01571552 Eh      9.86 kcal/mol
Translational entropy             ...      0.01987565 Eh     12.47 kcal/mol
-----------------------------------------------------------------------
Final entropy term                ...      0.05188064 Eh     32.56 kcal/mol

In case the symmetry of your molecule has not been determined correctly
or in case you have a reason to use a different symmetry number we print 
out the resulting rotational entropy values for sn=1,12 :
 --------------------------------------------------------
|  sn= 1 | S(rot)=       0.01571552 Eh      9.86 kcal/mol|
|  sn= 2 | S(rot)=       0.01506107 Eh      9.45 kcal/mol|
|  sn= 3 | S(rot)=       0.01467823 Eh      9.21 kcal/mol|
|  sn= 4 | S(rot)=       0.01440661 Eh      9.04 kcal/mol|
|  sn= 5 | S(rot)=       0.01419592 Eh      8.91 kcal/mol|
|  sn= 6 | S(rot)=       0.01402378 Eh      8.80 kcal/mol|
|  sn= 7 | S(rot)=       0.01387823 Eh      8.71 kcal/mol|
|  sn= 8 | S(rot)=       0.01375215 Eh      8.63 kcal/mol|
|  sn= 9 | S(rot)=       0.01364094 Eh      8.56 kcal/mol|
|  sn=10 | S(rot)=       0.01354146 Eh      8.50 kcal/mol|
|  sn=11 | S(rot)=       0.01345147 Eh      8.44 kcal/mol|
|  sn=12 | S(rot)=       0.01336932 Eh      8.39 kcal/mol|
 --------------------------------------------------------


-------------------
GIBBS FREE ENERGY
-------------------

The Gibbs free energy is G = H - T*S

Total enthalpy                    ...   -745.73740953 Eh 
Total entropy correction          ...     -0.05188064 Eh    -32.56 kcal/mol
-----------------------------------------------------------------------
Final Gibbs free energy         ...   -745.78929016 Eh

For completeness - the Gibbs free energy minus the electronic energy
G-E(el)                           ...      0.23839085 Eh    149.59 kcal/mol


Timings for individual modules:

Sum of individual times         ...     1611.660 sec (=  26.861 min)
GTO integral calculation        ...        0.407 sec (=   0.007 min)   0.0 %
SCF iterations                  ...       77.658 sec (=   1.294 min)   4.8 %
Analytical frequency calculation...     1533.595 sec (=  25.560 min)  95.2 %
                             ****ORCA TERMINATED NORMALLY****
TOTAL RUN TIME: 0 days 0 hours 26 minutes 52 seconds 462 msec
