
                                 *****************
                                 * O   R   C   A *
                                 *****************

                                            #,                                       
                                            ###                                      
                                            ####                                     
                                            #####                                    
                                            ######                                   
                                           ########,                                 
                                     ,,################,,,,,                         
                               ,,#################################,,                 
                          ,,##########################################,,             
                       ,#########################################, ''#####,          
                    ,#############################################,,   '####,        
                  ,##################################################,,,,####,       
                ,###########''''           ''''###############################       
              ,#####''   ,,,,##########,,,,          '''####'''          '####       
            ,##' ,,,,###########################,,,                        '##       
           ' ,,###''''                  '''############,,,                           
         ,,##''                                '''############,,,,        ,,,,,,###''
      ,#''                                            '''#######################'''  
     '                                                          ''''####''''         
             ,#######,   #######,   ,#######,      ##                                
            ,#'     '#,  ##    ##  ,#'     '#,    #''#        ######   ,####,        
            ##       ##  ##   ,#'  ##            #'  '#       #        #'  '#        
            ##       ##  #######   ##           ,######,      #####,   #    #        
            '#,     ,#'  ##    ##  '#,     ,#' ,#      #,         ##   #,  ,#        
             '#######'   ##     ##  '#######'  #'      '#     #####' # '####'        



                  #######################################################
                  #                        -***-                        #
                  #          Department of theory and spectroscopy      #
                  #    Directorship and core code : Frank Neese         #
                  #        Max Planck Institute fuer Kohlenforschung    #
                  #                Kaiser Wilhelm Platz 1               #
                  #                 D-45470 Muelheim/Ruhr               #
                  #                      Germany                        #
                  #                                                     #
                  #                  All rights reserved                #
                  #                        -***-                        #
                  #######################################################



                         Program Version 5.0.4 -  RELEASE  -

 With contributions from (in alphabetic order):
   Daniel Aravena         : Magnetic Suceptibility
   Michael Atanasov       : Ab Initio Ligand Field Theory (pilot matlab implementation)
   Alexander A. Auer      : GIAO ZORA, VPT2 properties, NMR spectrum
   Ute Becker             : Parallelization
   Giovanni Bistoni       : ED, misc. LED, open-shell LED, HFLD
   Martin Brehm           : Molecular dynamics
   Dmytro Bykov           : SCF Hessian
   Vijay G. Chilkuri      : MRCI spin determinant printing, contributions to CSF-ICE
   Dipayan Datta          : RHF DLPNO-CCSD density
   Achintya Kumar Dutta   : EOM-CC, STEOM-CC
   Dmitry Ganyushin       : Spin-Orbit,Spin-Spin,Magnetic field MRCI
   Miquel Garcia          : C-PCM and meta-GGA Hessian, CC/C-PCM, Gaussian charge scheme
   Yang Guo               : DLPNO-NEVPT2, F12-NEVPT2, CIM, IAO-localization
   Andreas Hansen         : Spin unrestricted coupled pair/coupled cluster methods
   Benjamin Helmich-Paris : MC-RPA, TRAH-SCF, COSX integrals
   Lee Huntington         : MR-EOM, pCC
   Robert Izsak           : Overlap fitted RIJCOSX, COSX-SCS-MP3, EOM
   Marcus Kettner         : VPT2
   Christian Kollmar      : KDIIS, OOCD, Brueckner-CCSD(T), CCSD density, CASPT2, CASPT2-K
   Simone Kossmann        : Meta GGA functionals, TD-DFT gradient, OOMP2, MP2 Hessian
   Martin Krupicka        : Initial AUTO-CI
   Lucas Lang             : DCDCAS
   Marvin Lechner         : AUTO-CI (C++ implementation), FIC-MRCC
   Dagmar Lenk            : GEPOL surface, SMD
   Dimitrios Liakos       : Extrapolation schemes; Compound Job, initial MDCI parallelization
   Dimitrios Manganas     : Further ROCIS development; embedding schemes
   Dimitrios Pantazis     : SARC Basis sets
   Anastasios Papadopoulos: AUTO-CI, single reference methods and gradients
   Taras Petrenko         : DFT Hessian,TD-DFT gradient, ASA, ECA, R-Raman, ABS, FL, XAS/XES, NRVS
   Peter Pinski           : DLPNO-MP2, DLPNO-MP2 Gradient
   Christoph Reimann      : Effective Core Potentials
   Marius Retegan         : Local ZFS, SOC
   Christoph Riplinger    : Optimizer, TS searches, QM/MM, DLPNO-CCSD(T), (RO)-DLPNO pert. Triples
   Tobias Risthaus        : Range-separated hybrids, TD-DFT gradient, RPA, STAB
   Michael Roemelt        : Original ROCIS implementation
   Masaaki Saitow         : Open-shell DLPNO-CCSD energy and density
   Barbara Sandhoefer     : DKH picture change effects
   Avijit Sen             : IP-ROCIS
   Kantharuban Sivalingam : CASSCF convergence, NEVPT2, FIC-MRCI
   Bernardo de Souza      : ESD, SOC TD-DFT
   Georgi Stoychev        : AutoAux, RI-MP2 NMR, DLPNO-MP2 response
   Willem Van den Heuvel  : Paramagnetic NMR
   Boris Wezisla          : Elementary symmetry handling
   Frank Wennmohs         : Technical directorship


 We gratefully acknowledge several colleagues who have allowed us to
 interface, adapt or use parts of their codes:
   Stefan Grimme, W. Hujo, H. Kruse, P. Pracht,  : VdW corrections, initial TS optimization,
                  C. Bannwarth, S. Ehlert          DFT functionals, gCP, sTDA/sTD-DF
   Ed Valeev, F. Pavosevic, A. Kumar             : LibInt (2-el integral package), F12 methods
   Garnet Chan, S. Sharma, J. Yang, R. Olivares  : DMRG
   Ulf Ekstrom                                   : XCFun DFT Library
   Mihaly Kallay                                 : mrcc  (arbitrary order and MRCC methods)
   Jiri Pittner, Ondrej Demel                    : Mk-CCSD
   Frank Weinhold                                : gennbo (NPA and NBO analysis)
   Christopher J. Cramer and Donald G. Truhlar   : smd solvation model
   Lars Goerigk                                  : TD-DFT with DH, B97 family of functionals
   V. Asgeirsson, H. Jonsson                     : NEB implementation
   FAccTs GmbH                                   : IRC, NEB, NEB-TS, DLPNO-Multilevel, CI-OPT
                                                   MM, QMMM, 2- and 3-layer-ONIOM, Crystal-QMMM,
                                                   LR-CPCM, SF, NACMEs, symmetry and pop. for TD-DFT,
                                                   nearIR, NL-DFT gradient (VV10), updates on ESD,
                                                   ML-optimized integration grids
   S Lehtola, MJT Oliveira, MAL Marques          : LibXC Library
   Liviu Ungur et al                             : ANISO software


 Your calculation uses the libint2 library for the computation of 2-el integrals
 For citations please refer to: http://libint.valeyev.net

 Your ORCA version has been built with support for libXC version: 5.1.0
 For citations please refer to: https://tddft.org/programs/libxc/

 This ORCA versions uses:
   CBLAS   interface :  Fast vector & matrix operations
   LAPACKE interface :  Fast linear algebra routines
   Shared memory     :  Shared parallel matrices


Your calculation utilizes the atom-pairwise dispersion correction
with the Becke-Johnson damping scheme (D3BJ)
Cite in your paper:
S.Grimme, S.Ehrlich, L.Goerigk, J Comput Chem, (2011), 32, 1456–1465 
S.Grimme, J.Antony, S.Ehrlich and H.Krieg, J.Chem.Phys., 132, (2010), 154104 
   

================================================================================

----- Orbital basis set information -----
Your calculation utilizes the basis: def2-SVP
   F. Weigend and R. Ahlrichs, Phys. Chem. Chem. Phys. 7, 3297 (2005).

----- AuxJ basis set information -----
Your calculation utilizes the auxiliary basis: def2/J
   F. Weigend, Phys. Chem. Chem. Phys. 8, 1057 (2006).

================================================================================
                                        WARNINGS
                       Please study these warnings very carefully!
================================================================================


WARNING: Geometry Optimization
  ===> : Switching off AutoStart
         For restart on a previous wavefunction, please use MOREAD

INFO   : the flag for use of the SHARK integral package has been found!

================================================================================
                                       INPUT FILE
================================================================================
NAME = lactone.inp
|  1> !B3LYP D3 DEF2-SVP OPT KEEPDENS
|  2> 
|  3> * xyz 0 1 
|  4> C         -2.19840        3.00305       -0.20666
|  5> C         -2.50179        1.55642        0.08284
|  6> O         -1.29812        0.85411       -0.22491
|  7> H         -3.31949        1.17786       -0.53711
|  8> H         -2.74629        1.38587        1.13674
|  9> C         -0.73652        3.10508        0.14798
| 10> H         -2.83435        3.69747        0.34848
| 11> H         -2.33068        3.20260       -1.27718
| 12> C         -0.24607        1.72326       -0.16280
| 13> H         -0.58903        3.30540        1.21300
| 14> H         -0.22545        3.85317       -0.46203
| 15> O          0.92223        1.40071       -0.30020
| 16> **                         ****END OF INPUT****
================================================================================

                       *****************************
                       * Geometry Optimization Run *
                       *****************************

Geometry optimization settings:
Update method            Update   .... BFGS
Choice of coordinates    CoordSys .... Z-matrix Internals
Initial Hessian          InHess   .... Almoef's Model

Convergence Tolerances:
Energy Change            TolE     ....  5.0000e-06 Eh
Max. Gradient            TolMAXG  ....  3.0000e-04 Eh/bohr
RMS Gradient             TolRMSG  ....  1.0000e-04 Eh/bohr
Max. Displacement        TolMAXD  ....  4.0000e-03 bohr
RMS Displacement         TolRMSD  ....  2.0000e-03 bohr
Strict Convergence                ....  False
------------------------------------------------------------------------------
                        ORCA OPTIMIZATION COORDINATE SETUP
------------------------------------------------------------------------------

The optimization will be done in new redundant internal coordinates
Making redundant internal coordinates   ...  (new redundants) done
Evaluating the initial hessian          ...  (Almloef) done
Evaluating the coordinates              ...  done
Calculating the B-matrix                .... done
Calculating the G-matrix                .... done
Diagonalizing the G-matrix              .... done
The first mode is                       ....   33
The number of degrees of freedom        ....   30

    -----------------------------------------------------------------
                    Redundant Internal Coordinates


    -----------------------------------------------------------------
         Definition                    Initial Value    Approx d2E/dq
    -----------------------------------------------------------------
      1. B(C   1,C   0)                  1.5062         0.407730   
      2. B(O   2,C   1)                  1.4272         0.488199   
      3. B(H   3,C   1)                  1.0937         0.355179   
      4. B(H   4,C   1)                  1.0953         0.353221   
      5. B(C   5,C   0)                  1.5077         0.405411   
      6. B(H   6,C   0)                  1.0931         0.356044   
      7. B(H   7,C   0)                  1.0970         0.351004   
      8. B(C   8,C   5)                  1.4989         0.418866   
      9. B(C   8,O   2)                  1.3660         0.611067   
     10. B(H   9,C   5)                  1.0937         0.355257   
     11. B(H  10,C   5)                  1.0922         0.357176   
     12. B(O  11,C   8)                  1.2198         1.045838   
     13. A(C   5,C   0,H   7)          109.5210         0.327331   
     14. A(C   5,C   0,H   6)          113.6815         0.328101   
     15. A(C   1,C   0,C   5)          102.4207         0.374066   
     16. A(H   6,C   0,H   7)          108.0532         0.289160   
     17. A(C   1,C   0,H   7)          109.7552         0.327639   
     18. A(C   1,C   0,H   6)          113.2884         0.328410   
     19. A(O   2,C   1,H   3)          109.7545         0.336184   
     20. A(H   3,C   1,H   4)          108.9428         0.289335   
     21. A(C   0,C   1,H   3)          111.9671         0.328279   
     22. A(C   0,C   1,O   2)          105.1480         0.383865   
     23. A(O   2,C   1,H   4)          108.6114         0.335875   
     24. A(C   0,C   1,H   4)          112.3014         0.327979   
     25. A(C   1,O   2,C   8)          109.0646         0.409484   
     26. A(C   0,C   5,C   8)          101.8943         0.375810   
     27. A(H   9,C   5,H  10)          110.8126         0.289851   
     28. A(C   8,C   5,H  10)          111.2558         0.330048   
     29. A(C   0,C   5,H  10)          111.6335         0.328273   
     30. A(C   8,C   5,H   9)          109.0651         0.329754   
     31. A(C   0,C   5,H   9)          111.8512         0.327982   
     32. A(O   2,C   8,C   5)          110.1205         0.401132   
     33. A(C   5,C   8,O  11)          125.4895         0.441501   
     34. A(O   2,C   8,O  11)          124.3519         0.469797   
     35. D(H   4,C   1,C   0,H   6)    -37.9993         0.013173   
     36. D(H   4,C   1,C   0,H   7)   -158.8679         0.013173   
     37. D(H   3,C   1,C   0,C   5)   -152.2003         0.013173   
     38. D(H   3,C   1,C   0,H   6)     84.9418         0.013173   
     39. D(H   3,C   1,C   0,H   7)    -35.9269         0.013173   
     40. D(O   2,C   1,C   0,H   7)     83.2014         0.013173   
     41. D(H   4,C   1,C   0,C   5)     84.8586         0.013173   
     42. D(O   2,C   1,C   0,C   5)    -33.0721         0.013173   
     43. D(O   2,C   1,C   0,H   6)   -155.9300         0.013173   
     44. D(C   8,O   2,C   1,H   4)    -97.8930         0.018817   
     45. D(C   8,O   2,C   1,H   3)    143.1015         0.018817   
     46. D(C   8,O   2,C   1,C   0)     22.5046         0.018817   
     47. D(C   8,C   5,C   0,H   7)    -86.0176         0.013029   
     48. D(C   8,C   5,C   0,H   6)    153.0167         0.013029   
     49. D(C   8,C   5,C   0,C   1)     30.4245         0.013029   
     50. D(H  10,C   5,C   0,H   7)     32.8050         0.013029   
     51. D(H  10,C   5,C   0,H   6)    -88.1608         0.013029   
     52. D(H  10,C   5,C   0,C   1)    149.2471         0.013029   
     53. D(H   9,C   5,C   0,H   7)    157.6157         0.013029   
     54. D(H   9,C   5,C   0,H   6)     36.6500         0.013029   
     55. D(H   9,C   5,C   0,C   1)    -85.9421         0.013029   
     56. D(O  11,C   8,C   5,H  10)     44.5861         0.012976   
     57. D(O  11,C   8,C   5,H   9)    -77.9488         0.012976   
     58. D(O  11,C   8,C   5,C   0)    163.6768         0.012976   
     59. D(O   2,C   8,C   5,H  10)   -137.5833         0.012976   
     60. D(O   2,C   8,C   5,H   9)     99.8819         0.012976   
     61. D(O   2,C   8,C   5,C   0)    -18.4926         0.012976   
     62. D(O  11,C   8,O   2,C   1)    175.5238         0.027339   
     63. D(C   5,C   8,O   2,C   1)     -2.3367         0.027339   
    -----------------------------------------------------------------

Number of atoms                         .... 12
Number of degrees of freedom            .... 63

         *************************************************************
         *                GEOMETRY OPTIMIZATION CYCLE   1            *
         *************************************************************
---------------------------------
CARTESIAN COORDINATES (ANGSTROEM)
---------------------------------
  C     -2.198400    3.003050   -0.206660
  C     -2.501790    1.556420    0.082840
  O     -1.298120    0.854110   -0.224910
  H     -3.319490    1.177860   -0.537110
  H     -2.746290    1.385870    1.136740
  C     -0.736520    3.105080    0.147980
  H     -2.834350    3.697470    0.348480
  H     -2.330680    3.202600   -1.277180
  C     -0.246070    1.723260   -0.162800
  H     -0.589030    3.305400    1.213000
  H     -0.225450    3.853170   -0.462030
  O      0.922230    1.400710   -0.300200

----------------------------
CARTESIAN COORDINATES (A.U.)
----------------------------
  NO LB      ZA    FRAG     MASS         X           Y           Z
   0 C     6.0000    0    12.011   -4.154374    5.674942   -0.390531
   1 C     6.0000    0    12.011   -4.727698    2.941208    0.156545
   2 O     8.0000    0    15.999   -2.453091    1.614034   -0.425018
   3 H     1.0000    0     1.008   -6.272927    2.225833   -1.014991
   4 H     1.0000    0     1.008   -5.189736    2.618915    2.148127
   5 C     6.0000    0    12.011   -1.391821    5.867751    0.279642
   6 H     1.0000    0     1.008   -5.356145    6.987206    0.658532
   7 H     1.0000    0     1.008   -4.404347    6.052037   -2.413520
   8 C     6.0000    0    12.011   -0.465005    3.256489   -0.307647
   9 H     1.0000    0     1.008   -1.113105    6.246301    2.292238
  10 H     1.0000    0     1.008   -0.426039    7.281436   -0.873110
  11 O     8.0000    0    15.999    1.742762    2.646958   -0.567296

--------------------------------
INTERNAL COORDINATES (ANGSTROEM)
--------------------------------
 C      0   0   0     0.000000000000     0.00000000     0.00000000
 C      1   0   0     1.506185280435     0.00000000     0.00000000
 O      2   1   0     1.427154815533   105.14797932     0.00000000
 H      2   1   3     1.093745384493   111.96707350   240.87175258
 H      2   1   3     1.095250091303   112.30135003   117.93071410
 C      1   2   3     1.507737637953   102.42071283   326.92791848
 H      1   2   3     1.093083692358   113.28840969   204.07000091
 H      1   2   3     1.096964571579   109.75520813    83.20139551
 C      3   2   1     1.366048526627   109.06461414    22.50459575
 H      6   1   2     1.093685970880   111.85118840   274.05787993
 H      6   1   2     1.092219480279   111.63354688   149.24710223
 O      9   3   2     1.219771352549   124.35192103   175.52383343

---------------------------
INTERNAL COORDINATES (A.U.)
---------------------------
 C      0   0   0     0.000000000000     0.00000000     0.00000000
 C      1   0   0     2.846277686966     0.00000000     0.00000000
 O      2   1   0     2.696931752065   105.14797932     0.00000000
 H      2   1   3     2.066879236932   111.96707350   240.87175258
 H      2   1   3     2.069722720716   112.30135003   117.93071410
 C      1   2   3     2.849211217536   102.42071283   326.92791848
 H      1   2   3     2.065628820013   113.28840969   204.07000091
 H      1   2   3     2.072962618899   109.75520813    83.20139551
 C      3   2   1     2.581457600972   109.06461414    22.50459575
 H      6   1   2     2.066766961475   111.85118840   274.05787993
 H      6   1   2     2.063995695860   111.63354688   149.24710223
 O      9   3   2     2.305033802321   124.35192103   175.52383343

---------------------
BASIS SET INFORMATION
---------------------
There are 3 groups of distinct atoms

 Group   1 Type C   : 7s4p1d contracted to 3s2p1d pattern {511/31/1}
 Group   2 Type O   : 7s4p1d contracted to 3s2p1d pattern {511/31/1}
 Group   3 Type H   : 4s1p contracted to 2s1p pattern {31/1}

Atom   0C    basis set group =>   1
Atom   1C    basis set group =>   1
Atom   2O    basis set group =>   2
Atom   3H    basis set group =>   3
Atom   4H    basis set group =>   3
Atom   5C    basis set group =>   1
Atom   6H    basis set group =>   3
Atom   7H    basis set group =>   3
Atom   8C    basis set group =>   1
Atom   9H    basis set group =>   3
Atom  10H    basis set group =>   3
Atom  11O    basis set group =>   2
---------------------------------
AUXILIARY/J BASIS SET INFORMATION
---------------------------------
There are 3 groups of distinct atoms

 Group   1 Type C   : 12s5p4d2f1g contracted to 6s4p3d1f1g pattern {711111/2111/211/2/1}
 Group   2 Type O   : 12s5p4d2f1g contracted to 6s4p3d1f1g pattern {711111/2111/211/2/1}
 Group   3 Type H   : 5s2p1d contracted to 3s1p1d pattern {311/2/1}

Atom   0C    basis set group =>   1
Atom   1C    basis set group =>   1
Atom   2O    basis set group =>   2
Atom   3H    basis set group =>   3
Atom   4H    basis set group =>   3
Atom   5C    basis set group =>   1
Atom   6H    basis set group =>   3
Atom   7H    basis set group =>   3
Atom   8C    basis set group =>   1
Atom   9H    basis set group =>   3
Atom  10H    basis set group =>   3
Atom  11O    basis set group =>   2
------------------------------------------------------------------------------
                           ORCA GTO INTEGRAL CALCULATION
                           -- RI-GTO INTEGRALS CHOSEN --
------------------------------------------------------------------------------
------------------------------------------------------------------------------
                   ___                                                        
                  /   \      - P O W E R E D   B Y -                         
                 /     \                                                     
                 |  |  |   _    _      __       _____    __    __             
                 |  |  |  | |  | |    /  \     |  _  \  |  |  /  |          
                  \  \/   | |  | |   /    \    | | | |  |  | /  /          
                 / \  \   | |__| |  /  /\  \   | |_| |  |  |/  /          
                |  |  |   |  __  | /  /__\  \  |    /   |      \           
                |  |  |   | |  | | |   __   |  |    \   |  |\   \          
                \     /   | |  | | |  |  |  |  | |\  \  |  | \   \       
                 \___/    |_|  |_| |__|  |__|  |_| \__\ |__|  \__/        
                                                                              
                      - O R C A' S   B I G   F R I E N D -                    
                                      &                                       
                       - I N T E G R A L  F E E D E R -                       
                                                                              
 v1 FN, 2020, v2 2021                                                         
------------------------------------------------------------------------------


Reading SHARK input file lactone.SHARKINP.tmp ... ok
----------------------
SHARK INTEGRAL PACKAGE
----------------------

Number of atoms                             ...     12
Number of basis functions                   ...    114
Number of shells                            ...     54
Maximum angular momentum                    ...      2
Integral batch strategy                     ... SHARK/LIBINT Hybrid
RI-J (if used) integral strategy            ... SPLIT-RIJ (Revised 2003 algorithm where possible)
Printlevel                                  ...      1
Contraction scheme used                     ... SEGMENTED contraction
Coulomb Range Separation                    ... NOT USED
Exchange Range Separation                   ... NOT USED
Finite Nucleus Model                        ... NOT USED
Auxiliary Coulomb fitting basis             ... AVAILABLE
   # of basis functions in Aux-J            ...    360
   # of shells in Aux-J                     ...    120
   Maximum angular momentum in Aux-J        ...      4
Auxiliary J/K fitting basis                 ... NOT available
Auxiliary Correlation fitting basis         ... NOT available
Auxiliary 'external' fitting basis          ... NOT available
Integral threshold                          ...     2.500000e-11
Primitive cut-off                           ...     2.500000e-12
Primitive pair pre-selection threshold      ...     2.500000e-12

Calculating pre-screening integrals         ... done (  0.1 sec) Dimension = 54
Organizing shell pair data                  ... done (  0.0 sec)
Shell pair information
Total number of shell pairs                 ...      1485
Shell pairs after pre-screening             ...      1460
Total number of primitive shell pairs       ...      5349
Primitive shell pairs kept                  ...      4167
          la=0 lb=0:    452 shell pairs
          la=1 lb=0:    534 shell pairs
          la=1 lb=1:    170 shell pairs
          la=2 lb=0:    176 shell pairs
          la=2 lb=1:    107 shell pairs
          la=2 lb=2:     21 shell pairs

Calculating one electron integrals          ... done (  0.0 sec)
Calculating RI/J V-Matrix + Cholesky decomp.... done (  0.0 sec)
Calculating Nuclear repulsion               ... done (  0.0 sec) ENN=    241.928069638454 Eh

SHARK setup successfully completed in   0.3 seconds

Maximum memory used throughout the entire GTOINT-calculation: 13.5 MB
-------------------------------------------------------------------------------
                                 ORCA SCF
-------------------------------------------------------------------------------

------------
SCF SETTINGS
------------
Hamiltonian:
 Density Functional     Method          .... DFT(GTOs)
 Exchange Functional    Exchange        .... B88
   X-Alpha parameter    XAlpha          ....  0.666667
   Becke's b parameter  XBeta           ....  0.004200
 Correlation Functional Correlation     .... LYP
 LDA part of GGA corr.  LDAOpt          .... VWN-5
 Gradients option       PostSCFGGA      .... off
 Hybrid DFT is turned on
   Fraction HF Exchange ScalHFX         ....  0.200000
   Scaling of DF-GGA-X  ScalDFX         ....  0.720000
   Scaling of DF-GGA-C  ScalDFC         ....  0.810000
   Scaling of DF-LDA-C  ScalLDAC        ....  1.000000
   Perturbative correction              ....  0.000000
   Density functional embedding theory  .... OFF
   NL short-range parameter             ....  4.800000
 RI-approximation to the Coulomb term is turned on
   Number of AuxJ basis functions       .... 360
   RIJ-COSX (HFX calculated with COS-X)).... on


General Settings:
 Integral files         IntName         .... lactone
 Hartree-Fock type      HFTyp           .... RHF
 Total Charge           Charge          ....    0
 Multiplicity           Mult            ....    1
 Number of Electrons    NEL             ....   46
 Basis Dimension        Dim             ....  114
 Nuclear Repulsion      ENuc            ....    241.9280696385 Eh

Convergence Acceleration:
 DIIS                   CNVDIIS         .... on
   Start iteration      DIISMaxIt       ....    12
   Startup error        DIISStart       ....  0.200000
   # of expansion vecs  DIISMaxEq       ....     5
   Bias factor          DIISBfac        ....   1.050
   Max. coefficient     DIISMaxC        ....  10.000
 Trust-Rad. Augm. Hess. CNVTRAH         .... auto
   Auto Start mean grad. ratio tolernc. ....  1.125000
   Auto Start start iteration           ....    20
   Auto Start num. interpolation iter.  ....    10
   Max. Number of Micro iterations      ....    16
   Max. Number of Macro iterations      .... Maxiter - #DIIS iter
   Number of Davidson start vectors     ....     2
   Converg. threshold I  (grad. norm)   ....   1.000e-05
   Converg. threshold II (energy diff.) ....   1.000e-08
   Grad. Scal. Fac. for Micro threshold ....   0.100
   Minimum threshold for Micro iter.    ....   0.010
   NR start threshold (gradient norm)   ....   0.001
   Initial trust radius                 ....   0.400
   Minimum AH scaling param. (alpha)    ....   1.000
   Maximum AH scaling param. (alpha)    .... 1000.000
   Orbital update algorithm             .... Taylor
   White noise on init. David. guess    .... on
   Maximum white noise                  ....   0.010
   Quad. conv. algorithm                .... NR
 SOSCF                  CNVSOSCF        .... on
   Start iteration      SOSCFMaxIt      ....   150
   Startup grad/error   SOSCFStart      ....  0.003300
 Level Shifting         CNVShift        .... on
   Level shift para.    LevelShift      ....    0.2500
   Turn off err/grad.   ShiftErr        ....    0.0010
 Zerner damping         CNVZerner       .... off
 Static damping         CNVDamp         .... on
   Fraction old density DampFac         ....    0.7000
   Max. Damping (<1)    DampMax         ....    0.9800
   Min. Damping (>=0)   DampMin         ....    0.0000
   Turn off err/grad.   DampErr         ....    0.1000
 Fernandez-Rico         CNVRico         .... off

SCF Procedure:
 Maximum # iterations   MaxIter         ....   125
 SCF integral mode      SCFMode         .... Direct
   Integral package                     .... SHARK and LIBINT hybrid scheme
 Reset frequency        DirectResetFreq ....    20
 Integral Threshold     Thresh          ....  2.500e-11 Eh
 Primitive CutOff       TCut            ....  2.500e-12 Eh

Convergence Tolerance:
 Convergence Check Mode ConvCheckMode   .... Total+1el-Energy
 Convergence forced     ConvForced      .... 0
 Energy Change          TolE            ....  1.000e-08 Eh
 1-El. energy change                    ....  1.000e-05 Eh
 Orbital Gradient       TolG            ....  1.000e-05
 Orbital Rotation angle TolX            ....  1.000e-05
 DIIS Error             TolErr          ....  5.000e-07


Diagonalization of the overlap matrix:
Smallest eigenvalue                        ... 1.369e-03
Time for diagonalization                   ...    0.006 sec
Threshold for overlap eigenvalues          ... 1.000e-08
Number of eigenvalues below threshold      ... 0
Time for construction of square roots      ...    0.003 sec
Total time needed                          ...    0.009 sec

Time for model grid setup =    0.159 sec

------------------------------
INITIAL GUESS: MODEL POTENTIAL
------------------------------
Loading Hartree-Fock densities                     ... done
Calculating cut-offs                               ... done
Initializing the effective Hamiltonian             ... done
Setting up the integral package (SHARK)            ... done
Starting the Coulomb interaction                   ... done (   0.1 sec)
Reading the grid                                   ... done
Mapping shells                                     ... done
Starting the XC term evaluation                    ... done (   0.2 sec)
  promolecular density results
     # of electrons  =     45.997866121
     EX              =    -38.765094511
     EC              =     -1.571743651
     EX+EC           =    -40.336838162
Transforming the Hamiltonian                       ... done (   0.0 sec)
Diagonalizing the Hamiltonian                      ... done (   0.0 sec)
Back transforming the eigenvectors                 ... done (   0.0 sec)
Now organizing SCF variables                       ... done
                      ------------------
                      INITIAL GUESS DONE (   0.5 sec)
                      ------------------
-------------------
DFT GRID GENERATION
-------------------

General Integration Accuracy     IntAcc      ... 4.388
Radial Grid Type                 RadialGrid  ... OptM3 with GC (2021)
Angular Grid (max. ang.)         AngularGrid ... 4 (Lebedev-302)
Angular grid pruning method      GridPruning ... 4 (adaptive)
Weight generation scheme         WeightScheme... Becke
Basis function cutoff            BFCut       ... 1.0000e-11
Integration weight cutoff        WCut        ... 1.0000e-14
Angular grids for H and He will be reduced by one unit
Partially contracted basis set               ... off
Rotationally invariant grid construction     ... off

Total number of grid points                  ...    55544
Total number of batches                      ...      874
Average number of points per batch           ...       63
Average number of grid points per atom       ...     4629
Time for grid setup =    0.651 sec

--------------------
COSX GRID GENERATION
--------------------

GRIDX 1
-------
General Integration Accuracy     IntAcc      ... 3.816
Radial Grid Type                 RadialGrid  ... OptM3 with GC (2021)
Angular Grid (max. ang.)         AngularGrid ... 1 (Lebedev-50)
Angular grid pruning method      GridPruning ... 4 (adaptive)
Weight generation scheme         WeightScheme... Becke
Basis function cutoff            BFCut       ... 1.0000e-11
Integration weight cutoff        WCut        ... 1.0000e-14
Angular grids for H and He will be reduced by one unit
Partially contracted basis set               ... on
Rotationally invariant grid construction     ... off

Total number of grid points                  ...     7115
Total number of batches                      ...      119
Average number of points per batch           ...       59
Average number of grid points per atom       ...      593
UseSFitting                                  ... on

GRIDX 2
-------
General Integration Accuracy     IntAcc      ... 4.020
Radial Grid Type                 RadialGrid  ... OptM3 with GC (2021)
Angular Grid (max. ang.)         AngularGrid ... 2 (Lebedev-110)
Angular grid pruning method      GridPruning ... 4 (adaptive)
Weight generation scheme         WeightScheme... Becke
Basis function cutoff            BFCut       ... 1.0000e-11
Integration weight cutoff        WCut        ... 1.0000e-14
Angular grids for H and He will be reduced by one unit
Partially contracted basis set               ... on
Rotationally invariant grid construction     ... off

Total number of grid points                  ...    15496
Total number of batches                      ...      249
Average number of points per batch           ...       62
Average number of grid points per atom       ...     1291
UseSFitting                                  ... on

GRIDX 3
-------
General Integration Accuracy     IntAcc      ... 4.338
Radial Grid Type                 RadialGrid  ... OptM3 with GC (2021)
Angular Grid (max. ang.)         AngularGrid ... 3 (Lebedev-194)
Angular grid pruning method      GridPruning ... 4 (adaptive)
Weight generation scheme         WeightScheme... Becke
Basis function cutoff            BFCut       ... 1.0000e-11
Integration weight cutoff        WCut        ... 1.0000e-14
Angular grids for H and He will be reduced by one unit
Partially contracted basis set               ... on
Rotationally invariant grid construction     ... off

Total number of grid points                  ...    34054
Total number of batches                      ...      539
Average number of points per batch           ...       63
Average number of grid points per atom       ...     2838
UseSFitting                                  ... on

Time for X-Grid setup             =    0.924 sec

--------------
SCF ITERATIONS
--------------
ITER       Energy         Delta-E        Max-DP      RMS-DP      [F,P]     Damp
               ***  Starting incremental Fock matrix formation  ***
  0   -305.9039947668   0.000000000000 0.13454397  0.00387823  0.2736315 0.7000
  1   -305.9948656067  -0.090870839913 0.08805360  0.00243791  0.1026537 0.7000
                               ***Turning on DIIS***
  2   -306.0265213989  -0.031655792170 0.07582984  0.00339627  0.0375341 0.0000
  3   -306.0823754502  -0.055854051341 0.07541982  0.00174460  0.0515095 0.0000
  4   -306.0920667980  -0.009691347768 0.01253455  0.00046179  0.0179324 0.0000
  5   -306.0930086018  -0.000941803821 0.00434710  0.00013322  0.0040317 0.0000
                      *** Initiating the SOSCF procedure ***
                           *** Shutting down DIIS ***
                      *** Re-Reading the Fockian *** 
                      *** Removing any level shift *** 
ITER      Energy       Delta-E        Grad      Rot      Max-DP    RMS-DP
  6   -306.09304667  -0.0000380654  0.000261  0.000261  0.000998  0.000044
               *** Restarting incremental Fock matrix formation ***
  7   -306.09306769  -0.0000210221  0.000142  0.000385  0.000870  0.000036
  8   -306.09306668   0.0000010096  0.000340  0.000420  0.000660  0.000019
  9   -306.09306850  -0.0000018194  0.000048  0.000126  0.000168  0.000007
 10   -306.09306842   0.0000000828  0.000085  0.000088  0.000141  0.000005
 11   -306.09306853  -0.0000001116  0.000011  0.000017  0.000082  0.000002
 12   -306.09306853  -0.0000000032  0.000012  0.000008  0.000043  0.000001
                  ***Gradient check signals convergence***
              ***Rediagonalizing the Fockian in SOSCF/NRSCF***

               *****************************************************
               *                     SUCCESS                       *
               *           SCF CONVERGED AFTER  13 CYCLES          *
               *****************************************************

Old exchange energy                            =     -7.862200823 Eh
New exchange energy                            =     -7.862173027 Eh
Exchange energy change after final integration =      0.000027796 Eh
Total energy after final integration           =   -306.093040734 Eh
Final COS-X integration done in                =     4.886 sec

----------------
TOTAL SCF ENERGY
----------------

Total Energy       :         -306.09304073 Eh           -8329.21509 eV

Components:
Nuclear Repulsion  :          241.92806964 Eh            6583.19746 eV
Electronic Energy  :         -548.02111037 Eh          -14912.41255 eV
One Electron Energy:         -895.28342453 Eh          -24361.90052 eV
Two Electron Energy:          347.26231416 Eh            9449.48797 eV
Max COSX asymmetry :            0.00000252 Eh               0.00007 eV

Virial components:
Potential Energy   :         -609.61879765 Eh          -16588.57083 eV
Kinetic Energy     :          303.52575692 Eh            8259.35574 eV
Virial Ratio       :            2.00845821


DFT components:
N(Alpha)           :       22.999976462477 electrons
N(Beta)            :       22.999976462477 electrons
N(Total)           :       45.999952924954 electrons
E(X)               :      -31.257186553294 Eh       
E(C)               :       -1.853508712076 Eh       
E(XC)              :      -33.110695265369 Eh       
DFET-embed. en.    :        0.000000000000 Eh       

---------------
SCF CONVERGENCE
---------------

  Last Energy change         ...    8.2400e-10  Tolerance :   1.0000e-08
  Last MAX-Density change    ...    3.1086e-15  Tolerance :   1.0000e-07
  Last RMS-Density change    ...    5.2386e-17  Tolerance :   5.0000e-09
  Last Orbital Gradient      ...    3.4468e-07  Tolerance :   1.0000e-05
  Last Orbital Rotation      ...    6.8476e-07  Tolerance :   1.0000e-05

             **** THE GBW FILE WAS UPDATED (lactone.gbw) ****
             **** DENSITY lactone.scfp WAS UPDATED ****
             **** ENERGY FILE WAS UPDATED (lactone.en.tmp) ****
             **** THE GBW FILE WAS UPDATED (lactone.gbw) ****
             **** DENSITY lactone.scfp WAS UPDATED ****
----------------
ORBITAL ENERGIES
----------------

  NO   OCC          E(Eh)            E(eV) 
   0   2.0000     -19.177024      -521.8334 
   1   2.0000     -19.112695      -520.0829 
   2   2.0000     -10.309050      -280.5235 
   3   2.0000     -10.252806      -278.9930 
   4   2.0000     -10.205063      -277.6939 
   5   2.0000     -10.204875      -277.6888 
   6   2.0000      -1.092216       -29.7207 
   7   2.0000      -1.002369       -27.2758 
   8   2.0000      -0.813300       -22.1310 
   9   2.0000      -0.731115       -19.8947 
  10   2.0000      -0.626908       -17.0590 
  11   2.0000      -0.563673       -15.3383 
  12   2.0000      -0.529646       -14.4124 
  13   2.0000      -0.504845       -13.7375 
  14   2.0000      -0.452490       -12.3129 
  15   2.0000      -0.448151       -12.1948 
  16   2.0000      -0.420062       -11.4305 
  17   2.0000      -0.402746       -10.9593 
  18   2.0000      -0.382332       -10.4038 
  19   2.0000      -0.361816        -9.8455 
  20   2.0000      -0.351687        -9.5699 
  21   2.0000      -0.298014        -8.1094 
  22   2.0000      -0.264928        -7.2091 
  23   0.0000       0.002540         0.0691 
  24   0.0000       0.042223         1.1489 
  25   0.0000       0.072648         1.9768 
  26   0.0000       0.088832         2.4172 
  27   0.0000       0.108759         2.9595 
  28   0.0000       0.128637         3.5004 
  29   0.0000       0.137650         3.7457 
  30   0.0000       0.155122         4.2211 
  31   0.0000       0.191088         5.1998 
  32   0.0000       0.202646         5.5143 
  33   0.0000       0.250561         6.8181 
  34   0.0000       0.280420         7.6306 
  35   0.0000       0.360796         9.8178 
  36   0.0000       0.393181        10.6990 
  37   0.0000       0.418360        11.3841 
  38   0.0000       0.440943        11.9987 
  39   0.0000       0.456937        12.4339 
  40   0.0000       0.496932        13.5222 
  41   0.0000       0.528638        14.3850 
  42   0.0000       0.557916        15.1817 
  43   0.0000       0.586674        15.9642 
  44   0.0000       0.598960        16.2985 
  45   0.0000       0.612547        16.6683 
  46   0.0000       0.623057        16.9542 
  47   0.0000       0.634166        17.2565 
  48   0.0000       0.640783        17.4366 
  49   0.0000       0.651635        17.7319 
  50   0.0000       0.663812        18.0632 
  51   0.0000       0.675080        18.3699 
  52   0.0000       0.685365        18.6497 
  53   0.0000       0.692727        18.8501 
  54   0.0000       0.714725        19.4487 
  55   0.0000       0.853243        23.2179 
  56   0.0000       0.886661        24.1273 
  57   0.0000       0.936235        25.4762 
  58   0.0000       1.023612        27.8539 
  59   0.0000       1.061503        28.8850 
  60   0.0000       1.076113        29.2825 
  61   0.0000       1.095541        29.8112 
  62   0.0000       1.127488        30.6805 
  63   0.0000       1.232195        33.5297 
  64   0.0000       1.285329        34.9756 
  65   0.0000       1.318511        35.8785 
  66   0.0000       1.362378        37.0722 
  67   0.0000       1.451026        39.4844 
  68   0.0000       1.512408        41.1547 
  69   0.0000       1.550874        42.2014 
  70   0.0000       1.579688        42.9855 
  71   0.0000       1.606044        43.7027 
  72   0.0000       1.663890        45.2767 
  73   0.0000       1.713753        46.6336 
  74   0.0000       1.720022        46.8042 
  75   0.0000       1.739440        47.3326 
  76   0.0000       1.749471        47.6055 
  77   0.0000       1.767404        48.0935 
  78   0.0000       1.780940        48.4618 
  79   0.0000       1.805961        49.1427 
  80   0.0000       1.812268        49.3143 
  81   0.0000       1.851295        50.3763 
  82   0.0000       1.874844        51.0171 
  83   0.0000       1.891883        51.4807 
  84   0.0000       1.930512        52.5319 
  85   0.0000       1.952725        53.1364 
  86   0.0000       1.993388        54.2428 
  87   0.0000       2.095978        57.0345 
  88   0.0000       2.124965        57.8233 
  89   0.0000       2.134575        58.0847 
  90   0.0000       2.238185        60.9041 
  91   0.0000       2.290874        62.3379 
  92   0.0000       2.312677        62.9311 
  93   0.0000       2.401535        65.3491 
  94   0.0000       2.441225        66.4291 
  95   0.0000       2.525031        68.7096 
  96   0.0000       2.617709        71.2315 
  97   0.0000       2.646290        72.0092 
  98   0.0000       2.655788        72.2677 
  99   0.0000       2.689027        73.1721 
 100   0.0000       2.748738        74.7970 
 101   0.0000       2.793835        76.0241 
 102   0.0000       2.816983        76.6540 
 103   0.0000       2.892503        78.7090 
 104   0.0000       2.914055        79.2955 
 105   0.0000       2.975561        80.9691 
 106   0.0000       2.994088        81.4733 
 107   0.0000       3.035615        82.6033 
 108   0.0000       3.054829        83.1261 
 109   0.0000       3.208550        87.3091 
 110   0.0000       3.231356        87.9297 
 111   0.0000       3.303001        89.8792 
 112   0.0000       3.604055        98.0713 
 113   0.0000       3.643516        99.1451 

                    ********************************
                    * MULLIKEN POPULATION ANALYSIS *
                    ********************************

-----------------------
MULLIKEN ATOMIC CHARGES
-----------------------
   0 C :   -0.042720
   1 C :    0.224217
   2 O :   -0.295502
   3 H :    0.023130
   4 H :    0.015965
   5 C :    0.007481
   6 H :    0.012917
   7 H :    0.023583
   8 C :    0.150103
   9 H :    0.045882
  10 H :    0.041187
  11 O :   -0.206242
Sum of atomic charges:    0.0000000

--------------------------------
MULLIKEN REDUCED ORBITAL CHARGES
--------------------------------
  0 C s       :     3.024198  s :     3.024198
      pz      :     1.009600  p :     2.981565
      px      :     0.994307
      py      :     0.977657
      dz2     :     0.009337  d :     0.036958
      dxz     :     0.005662
      dyz     :     0.005359
      dx2y2   :     0.008931
      dxy     :     0.007667
  1 C s       :     2.983745  s :     2.983745
      pz      :     1.004256  p :     2.730353
      px      :     0.807774
      py      :     0.918323
      dz2     :     0.012395  d :     0.061685
      dxz     :     0.012447
      dyz     :     0.006780
      dx2y2   :     0.013683
      dxy     :     0.016380
  2 O s       :     3.758981  s :     3.758981
      pz      :     1.723407  p :     4.519435
      px      :     1.205030
      py      :     1.590999
      dz2     :     0.002299  d :     0.017086
      dxz     :     0.002226
      dyz     :     0.002603
      dx2y2   :     0.002605
      dxy     :     0.007353
  3 H s       :     0.955250  s :     0.955250
      pz      :     0.007794  p :     0.021620
      px      :     0.008827
      py      :     0.004999
  4 H s       :     0.962588  s :     0.962588
      pz      :     0.013920  p :     0.021447
      px      :     0.003499
      py      :     0.004028
  5 C s       :     2.977547  s :     2.977547
      pz      :     1.015546  p :     2.980543
      px      :     0.958967
      py      :     1.006030
      dz2     :     0.008305  d :     0.034429
      dxz     :     0.005574
      dyz     :     0.004373
      dx2y2   :     0.008524
      dxy     :     0.007653
  6 H s       :     0.964462  s :     0.964462
      pz      :     0.007043  p :     0.022621
      px      :     0.007328
      py      :     0.008251
  7 H s       :     0.953893  s :     0.953893
      pz      :     0.013723  p :     0.022524
      px      :     0.004200
      py      :     0.004602
  8 C s       :     3.089198  s :     3.089198
      pz      :     0.828797  p :     2.631420
      px      :     0.849649
      py      :     0.952975
      dz2     :     0.008296  d :     0.129279
      dxz     :     0.027304
      dyz     :     0.008552
      dx2y2   :     0.035163
      dxy     :     0.049964
  9 H s       :     0.930564  s :     0.930564
      pz      :     0.013940  p :     0.023555
      px      :     0.004583
      py      :     0.005031
 10 H s       :     0.935956  s :     0.935956
      pz      :     0.007533  p :     0.022856
      px      :     0.006476
      py      :     0.008847
 11 O s       :     3.734168  s :     3.734168
      pz      :     1.384113  p :     4.453994
      px      :     1.344675
      py      :     1.725206
      dz2     :     0.002077  d :     0.018080
      dxz     :     0.005335
      dyz     :     0.000467
      dx2y2   :     0.005725
      dxy     :     0.004476


                     *******************************
                     * LOEWDIN POPULATION ANALYSIS *
                     *******************************

----------------------
LOEWDIN ATOMIC CHARGES
----------------------
   0 C :   -0.045038
   1 C :    0.093353
   2 O :   -0.098528
   3 H :    0.023455
   4 H :    0.015547
   5 C :   -0.056614
   6 H :    0.028707
   7 H :    0.029950
   8 C :    0.091291
   9 H :    0.046448
  10 H :    0.044498
  11 O :   -0.173071

-------------------------------
LOEWDIN REDUCED ORBITAL CHARGES
-------------------------------
  0 C s       :     2.835418  s :     2.835418
      pz      :     1.064837  p :     3.117027
      px      :     1.026179
      py      :     1.026011
      dz2     :     0.023281  d :     0.092592
      dxz     :     0.012742
      dyz     :     0.012824
      dx2y2   :     0.025807
      dxy     :     0.017939
  1 C s       :     2.842542  s :     2.842542
      pz      :     1.065583  p :     2.925011
      px      :     0.875254
      py      :     0.984174
      dz2     :     0.029335  d :     0.139094
      dxz     :     0.029387
      dyz     :     0.013399
      dx2y2   :     0.031840
      dxy     :     0.035133
  2 O s       :     3.472412  s :     3.472412
      pz      :     1.705763  p :     4.594597
      px      :     1.264846
      py      :     1.623989
      dz2     :     0.004040  d :     0.031519
      dxz     :     0.004088
      dyz     :     0.002820
      dx2y2   :     0.004994
      dxy     :     0.015577
  3 H s       :     0.911809  s :     0.911809
      pz      :     0.022145  p :     0.064735
      px      :     0.027127
      py      :     0.015462
  4 H s       :     0.918948  s :     0.918948
      pz      :     0.041192  p :     0.065504
      px      :     0.011657
      py      :     0.012655
  5 C s       :     2.839057  s :     2.839057
      pz      :     1.064094  p :     3.128073
      px      :     1.023420
      py      :     1.040559
      dz2     :     0.021411  d :     0.089484
      dxz     :     0.012391
      dyz     :     0.012001
      dx2y2   :     0.024615
      dxy     :     0.019066
  6 H s       :     0.904297  s :     0.904297
      pz      :     0.019800  p :     0.066996
      px      :     0.022706
      py      :     0.024490
  7 H s       :     0.903944  s :     0.903944
      pz      :     0.039202  p :     0.066106
      px      :     0.013417
      py      :     0.013487
  8 C s       :     2.860135  s :     2.860135
      pz      :     0.817932  p :     2.763057
      px      :     0.970143
      py      :     0.974982
      dz2     :     0.018424  d :     0.285517
      dxz     :     0.052791
      dyz     :     0.015554
      dx2y2   :     0.082471
      dxy     :     0.116277
  9 H s       :     0.885148  s :     0.885148
      pz      :     0.039767  p :     0.068404
      px      :     0.013888
      py      :     0.014749
 10 H s       :     0.887817  s :     0.887817
      pz      :     0.021355  p :     0.067685
      px      :     0.019551
      py      :     0.026780
 11 O s       :     3.554246  s :     3.554246
      pz      :     1.384810  p :     4.588409
      px      :     1.469687
      py      :     1.733913
      dz2     :     0.004283  d :     0.030415
      dxz     :     0.006776
      dyz     :     0.000573
      dx2y2   :     0.011139
      dxy     :     0.007644


                      *****************************
                      * MAYER POPULATION ANALYSIS *
                      *****************************

  NA   - Mulliken gross atomic population
  ZA   - Total nuclear charge
  QA   - Mulliken gross atomic charge
  VA   - Mayer's total valence
  BVA  - Mayer's bonded valence
  FA   - Mayer's free valence

  ATOM       NA         ZA         QA         VA         BVA        FA
  0 C      6.0427     6.0000    -0.0427     4.1137     4.1137     0.0000
  1 C      5.7758     6.0000     0.2242     3.9802     3.9802     0.0000
  2 O      8.2955     8.0000    -0.2955     2.1997     2.1997     0.0000
  3 H      0.9769     1.0000     0.0231     0.9790     0.9790    -0.0000
  4 H      0.9840     1.0000     0.0160     0.9770     0.9770     0.0000
  5 C      5.9925     6.0000     0.0075     3.9245     3.9245     0.0000
  6 H      0.9871     1.0000     0.0129     0.9791     0.9791     0.0000
  7 H      0.9764     1.0000     0.0236     0.9724     0.9724    -0.0000
  8 C      5.8499     6.0000     0.1501     4.3425     4.3425     0.0000
  9 H      0.9541     1.0000     0.0459     0.9884     0.9884     0.0000
 10 H      0.9588     1.0000     0.0412     0.9972     0.9972     0.0000
 11 O      8.2062     8.0000    -0.2062     2.3024     2.3024     0.0000

  Mayer bond orders larger than 0.100000
B(  0-C ,  1-C ) :   1.0893 B(  0-C ,  5-C ) :   1.0872 B(  0-C ,  6-H ) :   0.9331 
B(  0-C ,  7-H ) :   0.9406 B(  1-C ,  2-O ) :   0.9443 B(  1-C ,  3-H ) :   0.9528 
B(  1-C ,  4-H ) :   0.9498 B(  2-O ,  8-C ) :   1.1225 B(  5-C ,  8-C ) :   0.9798 
B(  5-C ,  9-H ) :   0.9253 B(  5-C , 10-H ) :   0.9351 B(  8-C , 11-O ) :   2.1663 


-------
TIMINGS
-------

Total SCF time: 0 days 0 hours 0 min 41 sec 

Total time                  ....      41.203 sec
Sum of individual times     ....      40.855 sec  ( 99.2%)

Fock matrix formation       ....      38.667 sec  ( 93.8%)
  Split-RI-J                ....       2.605 sec  (  6.7% of F)
  Chain of spheres X        ....      28.219 sec  ( 73.0% of F)
  XC integration            ....       7.744 sec  ( 20.0% of F)
    Basis function eval.    ....       2.934 sec  ( 37.9% of XC)
    Density eval.           ....       1.929 sec  ( 24.9% of XC)
    XC-Functional eval.     ....       0.755 sec  (  9.7% of XC)
    XC-Potential eval.      ....       1.576 sec  ( 20.4% of XC)
Diagonalization             ....       0.026 sec  (  0.1%)
Density matrix formation    ....       0.001 sec  (  0.0%)
Population analysis         ....       0.024 sec  (  0.1%)
Initial guess               ....       0.336 sec  (  0.8%)
Orbital Transformation      ....       0.000 sec  (  0.0%)
Orbital Orthonormalization  ....       0.000 sec  (  0.0%)
DIIS solution               ....       0.045 sec  (  0.1%)
SOSCF solution              ....       0.022 sec  (  0.1%)
Grid generation             ....       1.734 sec  (  4.2%)

Maximum memory used throughout the entire SCF-calculation: 58.1 MB


-------------------------------------------------------------------------------
                          DFT DISPERSION CORRECTION                            
                                                                               
                              DFTD3 V3.1  Rev 1                                
                          USING Becke-Johnson damping                          
-------------------------------------------------------------------------------
The B3LYP functional is recognized
Active option DFTDOPT                   ...         4   

molecular C6(AA) [au] = 1224.182782 


            DFT-D V3
 parameters
 s6 scaling factor         :     1.0000 
 a1 scaling factor         :     0.3981 
 s8 scaling factor         :     1.9889 
 a2 scaling factor         :     4.4211 
 ad hoc parameters k1-k3   :    16.0000     1.3333    -4.0000 

 Edisp/kcal,au: -9.734970490359  -0.015513661314 
 E6   /kcal   :  -4.684690426 
 E8   /kcal   :  -5.050280065 
 % E8         :  51.877713135 

-------------------------   ----------------
Dispersion correction           -0.015513661
-------------------------   ----------------


-------------------------   --------------------
FINAL SINGLE POINT ENERGY      -306.108554395600
-------------------------   --------------------

------------------------------------------------------------------------------
                         ORCA SCF GRADIENT CALCULATION
------------------------------------------------------------------------------

 ... reading COSX grid (gridx3)
Gradient of the Kohn-Sham DFT energy:
Kohn-Sham wavefunction type      ... RKS
Hartree-Fock exchange scaling    ...    0.200
Number of operators              ...    1
Number of atoms                  ...   12
Basis set dimensions             ...  114
Integral neglect threshold       ... 2.5e-11
Integral primitive cutoff        ... 2.5e-12
SHARK Integral package           ... ON

Nuc. rep. gradient       (SHARK) ... done (  0.0 sec)
HCore & Overlap gradient (SHARK) ... done (  0.1 sec)
RI-J gradient            (SHARK) ... done (  0.6 sec)
COSX-gradient                    ... done (  6.0 sec)
Exchange-correlation gradient    ... done
Dispersion correction            ... done

------------------
CARTESIAN GRADIENT
------------------

   1   C   :    0.008095430   -0.011979055    0.000301460
   2   C   :    0.006910915    0.005483544    0.001678567
   3   O   :   -0.011003625   -0.003574760    0.001793385
   4   H   :    0.001647631    0.005699260    0.001290579
   5   H   :    0.002110353    0.001142451   -0.005823831
   6   C   :    0.008327555   -0.005852729    0.006989909
   7   H   :    0.004392390   -0.002135627   -0.001560898
   8   H   :    0.001601735   -0.000920900    0.003237090
   9   C   :   -0.046568605    0.016780727    0.001102318
  10   H   :   -0.003944007   -0.002162226   -0.005234690
  11   H   :   -0.007875252   -0.001993981   -0.002845988
  12   O   :    0.036237459   -0.000470087   -0.000818595

Difference to translation invariance:
           :   -0.0000680203    0.0000166173    0.0001093057

Difference to rotation invariance:
           :    0.0000714408    0.0004027712   -0.0000354215

Norm of the cartesian gradient     ...    0.0676996595
RMS gradient                       ...    0.0112832766
MAX gradient                       ...    0.0465686051

-------
TIMINGS
-------

Total SCF gradient time            ...       10.573 sec

One electron gradient       ....       0.092 sec  (  0.9%)
RI-J Coulomb gradient       ....       0.590 sec  (  5.6%)
COSX gradient               ....       5.952 sec  ( 56.3%)
XC gradient                 ....       3.446 sec  ( 32.6%)

Maximum memory used throughout the entire SCFGRAD-calculation: 45.9 MB
------------------------------------------------------------------------------
                         ORCA GEOMETRY RELAXATION STEP
------------------------------------------------------------------------------

Reading the OPT-File                    .... done
Getting information on internals        .... done
Copying old internal coords+grads       .... done
Making the new internal coordinates     .... (new redundants).... done
Validating the new internal coordinates .... (new redundants).... done
Calculating the B-matrix                .... done
Calculating the G,G- and P matrices     .... done
Transforming gradient to internals      .... done
Projecting the internal gradient        .... done
Number of atoms                         ....  12
Number of internal coordinates          ....  63
Current Energy                          ....  -306.108554396 Eh
Current gradient norm                   ....     0.067699660 Eh/bohr
Maximum allowed component of the step   ....  0.300
Current trust radius                    ....  0.300
Evaluating the initial hessian          ....  (Almloef) done
Projecting the Hessian                  .... done
Forming the augmented Hessian           .... done
Diagonalizing the augmented Hessian     .... done
Last element of RFO vector              ....  0.988327440
Lowest eigenvalues of augmented Hessian:
 -0.005318949  0.015308405  0.016651512  0.018514980  0.073075062
Length of the computed step             ....  0.154143837
The final length of the internal step   ....  0.154143837
Converting the step to cartesian space:
 Initial RMS(Int)=    0.0194202980
Transforming coordinates:
 Iter   0:  RMS(Cart)=    0.0288278007 RMS(Int)=    0.0194707747
 Iter   1:  RMS(Cart)=    0.0004603304 RMS(Int)=    0.0003470072
 Iter   2:  RMS(Cart)=    0.0000088327 RMS(Int)=    0.0000064376
 Iter   3:  RMS(Cart)=    0.0000002825 RMS(Int)=    0.0000002343
 Iter   4:  RMS(Cart)=    0.0000000087 RMS(Int)=    0.0000000079
done
Storing new coordinates                 .... done

                                .--------------------.
          ----------------------|Geometry convergence|-------------------------
          Item                value                   Tolerance       Converged
          ---------------------------------------------------------------------
          RMS gradient        0.0064807024            0.0001000000      NO
          MAX gradient        0.0349333261            0.0003000000      NO
          RMS step            0.0194202980            0.0020000000      NO
          MAX step            0.0638917204            0.0040000000      NO
          ........................................................
          Max(Bonds)      0.0213      Max(Angles)    1.75
          Max(Dihed)        3.66      Max(Improp)    0.00
          ---------------------------------------------------------------------

The optimization has not yet converged - more geometry cycles are needed


    ---------------------------------------------------------------------------
                         Redundant Internal Coordinates
                            (Angstroem and degrees)

        Definition                    Value    dE/dq     Step     New-Value
    ----------------------------------------------------------------------------
     1. B(C   1,C   0)                1.5062 -0.013396  0.0183    1.5245   
     2. B(O   2,C   1)                1.4272 -0.007546  0.0084    1.4356   
     3. B(H   3,C   1)                1.0937 -0.003929  0.0058    1.0995   
     4. B(H   4,C   1)                1.0953 -0.006273  0.0093    1.1045   
     5. B(C   5,C   0)                1.5077 -0.016027  0.0213    1.5291   
     6. B(H   6,C   0)                1.0931 -0.004709  0.0069    1.1000   
     7. B(H   7,C   0)                1.0970 -0.003518  0.0052    1.1022   
     8. B(C   8,C   5)                1.4989 -0.015504  0.0182    1.5171   
     9. B(C   8,O   2)                1.3660  0.004903 -0.0050    1.3610   
    10. B(H   9,C   5)                1.0937 -0.006024  0.0088    1.1025   
    11. B(H  10,C   5)                1.0922 -0.003461  0.0051    1.0973   
    12. B(O  11,C   8)                1.2198  0.034933 -0.0176    1.2022   
    13. A(C   5,C   0,H   7)          109.52 -0.000301    0.16    109.68   
    14. A(C   5,C   0,H   6)          113.68 -0.003913    0.75    114.43   
    15. A(C   1,C   0,C   5)          102.42  0.004609   -0.69    101.73   
    16. A(H   6,C   0,H   7)          108.05  0.001313   -0.16    107.90   
    17. A(C   1,C   0,H   7)          109.76 -0.000773   -0.11    109.64   
    18. A(C   1,C   0,H   6)          113.29 -0.000877    0.03    113.32   
    19. A(O   2,C   1,H   3)          109.75  0.001349   -0.63    109.13   
    20. A(H   3,C   1,H   4)          108.94  0.001603   -0.30    108.64   
    21. A(C   0,C   1,H   3)          111.97 -0.003839    1.04    113.00   
    22. A(C   0,C   1,O   2)          105.15  0.001440   -0.02    105.13   
    23. A(O   2,C   1,H   4)          108.61  0.000189   -0.07    108.54   
    24. A(C   0,C   1,H   4)          112.30 -0.000614   -0.05    112.25   
    25. A(C   1,O   2,C   8)          109.06 -0.008507    1.27    110.33   
    26. A(C   0,C   5,C   8)          101.89 -0.001885    0.74    102.64   
    27. A(H   9,C   5,H  10)          110.81  0.002879   -1.30    109.51   
    28. A(C   8,C   5,H  10)          111.26  0.002192   -0.41    110.85   
    29. A(C   0,C   5,H  10)          111.63 -0.004065    1.66    113.30   
    30. A(C   8,C   5,H   9)          109.07  0.001806   -0.75    108.31   
    31. A(C   0,C   5,H   9)          111.85 -0.001151    0.17    112.02   
    32. A(O   2,C   8,C   5)          110.12  0.003900   -0.63    109.49   
    33. A(C   5,C   8,O  11)          125.49 -0.013036    1.75    127.24   
    34. A(O   2,C   8,O  11)          124.35  0.009126   -1.02    123.33   
    35. D(H   4,C   1,C   0,H   6)    -38.00  0.000661    0.39    -37.60   
    36. D(H   4,C   1,C   0,H   7)   -158.87  0.000124    0.65   -158.21   
    37. D(H   3,C   1,C   0,C   5)   -152.20 -0.002785    1.21   -150.99   
    38. D(H   3,C   1,C   0,H   6)     84.94 -0.000573    0.73     85.68   
    39. D(H   3,C   1,C   0,H   7)    -35.93 -0.001109    0.99    -34.93   
    40. D(O   2,C   1,C   0,H   7)     83.20 -0.000657    0.78     83.98   
    41. D(H   4,C   1,C   0,C   5)     84.86 -0.001552    0.88     85.73   
    42. D(O   2,C   1,C   0,C   5)    -33.07 -0.002333    1.00    -32.07   
    43. D(O   2,C   1,C   0,H   6)   -155.93 -0.000120    0.52   -155.41   
    44. D(C   8,O   2,C   1,H   4)    -97.89 -0.001111    0.52    -97.38   
    45. D(C   8,O   2,C   1,H   3)    143.10 -0.003955    1.29    144.40   
    46. D(C   8,O   2,C   1,C   0)     22.50 -0.000944    0.40     22.91   
    47. D(C   8,C   5,C   0,H   7)    -86.02 -0.000173   -0.91    -86.92   
    48. D(C   8,C   5,C   0,H   6)    153.02  0.001006   -1.32    151.69   
    49. D(C   8,C   5,C   0,C   1)     30.42  0.001147   -1.32     29.11   
    50. D(H  10,C   5,C   0,H   7)     32.80 -0.000546   -0.20     32.61   
    51. D(H  10,C   5,C   0,H   6)    -88.16  0.000633   -0.61    -88.78   
    52. D(H  10,C   5,C   0,C   1)    149.25  0.000774   -0.61    148.64   
    53. D(H   9,C   5,C   0,H   7)    157.62 -0.000731   -0.51    157.10   
    54. D(H   9,C   5,C   0,H   6)     36.65  0.000448   -0.93     35.72   
    55. D(H   9,C   5,C   0,C   1)    -85.94  0.000589   -0.93    -86.87   
    56. D(O  11,C   8,C   5,H  10)     44.59  0.004720   -3.66     40.93   
    57. D(O  11,C   8,C   5,H   9)    -77.95 -0.001577   -1.24    -79.19   
    58. D(O  11,C   8,C   5,C   0)    163.68 -0.000078   -1.49    162.19   
    59. D(O   2,C   8,C   5,H  10)   -137.58  0.004713   -0.81   -138.39   
    60. D(O   2,C   8,C   5,H   9)     99.88 -0.001585    1.61    101.49   
    61. D(O   2,C   8,C   5,C   0)    -18.49 -0.000086    1.36    -17.13   
    62. D(O  11,C   8,O   2,C   1)    175.52  0.000014    1.76    177.28   
    63. D(C   5,C   8,O   2,C   1)     -2.34  0.000601   -1.13     -3.47   
    ----------------------------------------------------------------------------

         *************************************************************
         *                GEOMETRY OPTIMIZATION CYCLE   2            *
         *************************************************************
---------------------------------
CARTESIAN COORDINATES (ANGSTROEM)
---------------------------------
  C     -2.215318    3.019488   -0.207935
  C     -2.506659    1.550908    0.079099
  O     -1.284591    0.860501   -0.222142
  H     -3.314313    1.142931   -0.545545
  H     -2.757442    1.374075    1.140126
  C     -0.730409    3.116526    0.143917
  H     -2.862026    3.709646    0.353674
  H     -2.356049    3.222026   -1.282177
  C     -0.227945    1.715209   -0.148252
  H     -0.571939    3.325003    1.214893
  H     -0.189657    3.858055   -0.457520
  O      0.912388    1.370632   -0.309987

----------------------------
CARTESIAN COORDINATES (A.U.)
----------------------------
  NO LB      ZA    FRAG     MASS         X           Y           Z
   0 C     6.0000    0    12.011   -4.186344    5.706005   -0.392941
   1 C     6.0000    0    12.011   -4.736900    2.930792    0.149475
   2 O     8.0000    0    15.999   -2.427526    1.626111   -0.419788
   3 H     1.0000    0     1.008   -6.263143    2.159827   -1.030930
   4 H     1.0000    0     1.008   -5.210809    2.596626    2.154525
   5 C     6.0000    0    12.011   -1.380274    5.889381    0.271963
   6 H     1.0000    0     1.008   -5.408446    7.010216    0.668347
   7 H     1.0000    0     1.008   -4.452287    6.088747   -2.422963
   8 C     6.0000    0    12.011   -0.430753    3.241275   -0.280157
   9 H     1.0000    0     1.008   -1.080809    6.283345    2.295816
  10 H     1.0000    0     1.008   -0.358400    7.290667   -0.864588
  11 O     8.0000    0    15.999    1.724163    2.590118   -0.585791

--------------------------------
INTERNAL COORDINATES (ANGSTROEM)
--------------------------------
 C      0   0   0     0.000000000000     0.00000000     0.00000000
 C      1   0   0     1.524465388413     0.00000000     0.00000000
 O      2   1   0     1.435569034205   105.13537593     0.00000000
 H      2   1   3     1.099512849590   113.00831748   241.07806551
 H      2   1   3     1.104508622331   112.24061003   117.79852727
 C      1   2   3     1.529107120338   101.73561329   327.93767058
 H      1   2   3     1.099980036853   113.32439197   204.59579807
 H      1   2   3     1.102189448352   109.64143360    83.98838301
 C      3   2   1     1.361061117321   110.33322159    22.89964447
 H      6   1   2     1.102527189118   112.03030725   273.13040590
 H      6   1   2     1.097271311914   113.28674150   148.64470783
 O      9   3   2     1.202185091696   123.30534522   177.21925591

---------------------------
INTERNAL COORDINATES (A.U.)
---------------------------
 C      0   0   0     0.000000000000     0.00000000     0.00000000
 C      1   0   0     2.880822084743     0.00000000     0.00000000
 O      2   1   0     2.712832320985   105.13537593     0.00000000
 H      2   1   3     2.077778166453   113.00831748   241.07806551
 H      2   1   3     2.087218808760   112.24061003   117.79852727
 C      1   2   3     2.889593686868   101.73561329   327.93767058
 H      1   2   3     2.078661022434   113.32439197   204.59579807
 H      1   2   3     2.082836205083   109.64143360    83.98838301
 C      3   2   1     2.572032763266   110.33322159    22.89964447
 H      6   1   2     2.083474442634   112.03030725   273.13040590
 H      6   1   2     2.073542274126   113.28674150   148.64470783
 O      9   3   2     2.271800585588   123.30534522   177.21925591

------------------------------------------------------------------------------
                   ___                                                        
                  /   \      - P O W E R E D   B Y -                         
                 /     \                                                     
                 |  |  |   _    _      __       _____    __    __             
                 |  |  |  | |  | |    /  \     |  _  \  |  |  /  |          
                  \  \/   | |  | |   /    \    | | | |  |  | /  /          
                 / \  \   | |__| |  /  /\  \   | |_| |  |  |/  /          
                |  |  |   |  __  | /  /__\  \  |    /   |      \           
                |  |  |   | |  | | |   __   |  |    \   |  |\   \          
                \     /   | |  | | |  |  |  |  | |\  \  |  | \   \       
                 \___/    |_|  |_| |__|  |__|  |_| \__\ |__|  \__/        
                                                                              
                      - O R C A' S   B I G   F R I E N D -                    
                                      &                                       
                       - I N T E G R A L  F E E D E R -                       
                                                                              
 v1 FN, 2020, v2 2021                                                         
------------------------------------------------------------------------------


Reading SHARK input file lactone.SHARKINP.tmp ... ok
----------------------
SHARK INTEGRAL PACKAGE
----------------------

Number of atoms                             ...     12
Number of basis functions                   ...    114
Number of shells                            ...     54
Maximum angular momentum                    ...      2
Integral batch strategy                     ... SHARK/LIBINT Hybrid
RI-J (if used) integral strategy            ... SPLIT-RIJ (Revised 2003 algorithm where possible)
Printlevel                                  ...      1
Contraction scheme used                     ... SEGMENTED contraction
Coulomb Range Separation                    ... NOT USED
Exchange Range Separation                   ... NOT USED
Finite Nucleus Model                        ... NOT USED
Auxiliary Coulomb fitting basis             ... AVAILABLE
   # of basis functions in Aux-J            ...    360
   # of shells in Aux-J                     ...    120
   Maximum angular momentum in Aux-J        ...      4
Auxiliary J/K fitting basis                 ... NOT available
Auxiliary Correlation fitting basis         ... NOT available
Auxiliary 'external' fitting basis          ... NOT available
Integral threshold                          ...     2.500000e-11
Primitive cut-off                           ...     2.500000e-12
Primitive pair pre-selection threshold      ...     2.500000e-12

Calculating pre-screening integrals         ... done (  0.0 sec) Dimension = 54
Organizing shell pair data                  ... done (  0.0 sec)
Shell pair information
Total number of shell pairs                 ...      1485
Shell pairs after pre-screening             ...      1458
Total number of primitive shell pairs       ...      5349
Primitive shell pairs kept                  ...      4146
          la=0 lb=0:    452 shell pairs
          la=1 lb=0:    532 shell pairs
          la=1 lb=1:    170 shell pairs
          la=2 lb=0:    176 shell pairs
          la=2 lb=1:    107 shell pairs
          la=2 lb=2:     21 shell pairs

Calculating one electron integrals          ... done (  0.0 sec)
Calculating RI/J V-Matrix + Cholesky decomp.... done (  0.0 sec)
Calculating Nuclear repulsion               ... done (  0.0 sec) ENN=    240.894459224945 Eh

SHARK setup successfully completed in   0.2 seconds

Maximum memory used throughout the entire GTOINT-calculation: 13.5 MB

Diagonalization of the overlap matrix:
Smallest eigenvalue                        ... 1.466e-03
Time for diagonalization                   ...    0.004 sec
Threshold for overlap eigenvalues          ... 1.000e-08
Number of eigenvalues below threshold      ... 0
Time for construction of square roots      ...    0.002 sec
Total time needed                          ...    0.007 sec

-------------------
DFT GRID GENERATION
-------------------

General Integration Accuracy     IntAcc      ... 4.388
Radial Grid Type                 RadialGrid  ... OptM3 with GC (2021)
Angular Grid (max. ang.)         AngularGrid ... 4 (Lebedev-302)
Angular grid pruning method      GridPruning ... 4 (adaptive)
Weight generation scheme         WeightScheme... Becke
Basis function cutoff            BFCut       ... 1.0000e-11
Integration weight cutoff        WCut        ... 1.0000e-14
Angular grids for H and He will be reduced by one unit
Partially contracted basis set               ... off
Rotationally invariant grid construction     ... off

Total number of grid points                  ...    55577
Total number of batches                      ...      874
Average number of points per batch           ...       63
Average number of grid points per atom       ...     4631
Time for grid setup =    0.695 sec

--------------------
COSX GRID GENERATION
--------------------

GRIDX 1
-------
General Integration Accuracy     IntAcc      ... 3.816
Radial Grid Type                 RadialGrid  ... OptM3 with GC (2021)
Angular Grid (max. ang.)         AngularGrid ... 1 (Lebedev-50)
Angular grid pruning method      GridPruning ... 4 (adaptive)
Weight generation scheme         WeightScheme... Becke
Basis function cutoff            BFCut       ... 1.0000e-11
Integration weight cutoff        WCut        ... 1.0000e-14
Angular grids for H and He will be reduced by one unit
Partially contracted basis set               ... on
Rotationally invariant grid construction     ... off

Total number of grid points                  ...     7120
Total number of batches                      ...      119
Average number of points per batch           ...       59
Average number of grid points per atom       ...      593
UseSFitting                                  ... on

GRIDX 2
-------
General Integration Accuracy     IntAcc      ... 4.020
Radial Grid Type                 RadialGrid  ... OptM3 with GC (2021)
Angular Grid (max. ang.)         AngularGrid ... 2 (Lebedev-110)
Angular grid pruning method      GridPruning ... 4 (adaptive)
Weight generation scheme         WeightScheme... Becke
Basis function cutoff            BFCut       ... 1.0000e-11
Integration weight cutoff        WCut        ... 1.0000e-14
Angular grids for H and He will be reduced by one unit
Partially contracted basis set               ... on
Rotationally invariant grid construction     ... off

Total number of grid points                  ...    15497
Total number of batches                      ...      249
Average number of points per batch           ...       62
Average number of grid points per atom       ...     1291
UseSFitting                                  ... on

GRIDX 3
-------
General Integration Accuracy     IntAcc      ... 4.338
Radial Grid Type                 RadialGrid  ... OptM3 with GC (2021)
Angular Grid (max. ang.)         AngularGrid ... 3 (Lebedev-194)
Angular grid pruning method      GridPruning ... 4 (adaptive)
Weight generation scheme         WeightScheme... Becke
Basis function cutoff            BFCut       ... 1.0000e-11
Integration weight cutoff        WCut        ... 1.0000e-14
Angular grids for H and He will be reduced by one unit
Partially contracted basis set               ... on
Rotationally invariant grid construction     ... off

Total number of grid points                  ...    34069
Total number of batches                      ...      540
Average number of points per batch           ...       63
Average number of grid points per atom       ...     2839
UseSFitting                                  ... on

Time for X-Grid setup             =    0.693 sec

--------------
SCF ITERATIONS
--------------
ITER       Energy         Delta-E        Max-DP      RMS-DP      [F,P]     Damp
[...]
---------------

  Last Energy change         ...   -5.8026e-10  Tolerance :   1.0000e-08
  Last MAX-Density change    ...    3.9968e-15  Tolerance :   1.0000e-07
  Last RMS-Density change    ...    5.7260e-17  Tolerance :   5.0000e-09
  Last Orbital Gradient      ...    7.6359e-07  Tolerance :   1.0000e-05
  Last Orbital Rotation      ...    1.2997e-06  Tolerance :   1.0000e-05

             **** THE GBW FILE WAS UPDATED (lactone.gbw) ****
             **** DENSITY lactone.scfp WAS UPDATED ****
             **** ENERGY FILE WAS UPDATED (lactone.en.tmp) ****
             **** THE GBW FILE WAS UPDATED (lactone.gbw) ****
             **** DENSITY lactone.scfp WAS UPDATED ****
----------------
ORBITAL ENERGIES
----------------

  NO   OCC          E(Eh)            E(eV) 
   0   2.0000     -19.171575      -521.6851 
   1   2.0000     -19.113909      -520.1159 
   2   2.0000     -10.307993      -280.4948 
   3   2.0000     -10.255168      -279.0573 
   4   2.0000     -10.210373      -277.8384 
   5   2.0000     -10.208993      -277.8008 
   6   2.0000      -1.090889       -29.6846 
   7   2.0000      -1.010959       -27.5096 
   8   2.0000      -0.802959       -21.8496 
   9   2.0000      -0.727402       -19.7936 
  10   2.0000      -0.626737       -17.0544 
  11   2.0000      -0.557284       -15.1645 
  12   2.0000      -0.522549       -14.2193 
  13   2.0000      -0.501770       -13.6539 
  14   2.0000      -0.452982       -12.3263 
  15   2.0000      -0.440002       -11.9731 
  16   2.0000      -0.423030       -11.5112 
  17   2.0000      -0.407202       -11.0805 
  18   2.0000      -0.381942       -10.3932 
  19   2.0000      -0.357000        -9.7145 
  20   2.0000      -0.352161        -9.5828 
  21   2.0000      -0.297161        -8.0862 
  22   2.0000      -0.268429        -7.3043 
  23   0.0000       0.010169         0.2767 
  24   0.0000       0.043180         1.1750 
  25   0.0000       0.073118         1.9896 
  26   0.0000       0.087850         2.3905 
  27   0.0000       0.104572         2.8455 
  28   0.0000       0.129045         3.5115 
  29   0.0000       0.137156         3.7322 
  30   0.0000       0.153094         4.1659 
  31   0.0000       0.189021         5.1435 
  32   0.0000       0.191566         5.2128 
  33   0.0000       0.249331         6.7846 
  34   0.0000       0.282852         7.6968 
  35   0.0000       0.357841         9.7373 
  36   0.0000       0.385354        10.4860 
  37   0.0000       0.422867        11.5068 
  38   0.0000       0.448063        12.1924 
  39   0.0000       0.457686        12.4543 
  40   0.0000       0.502108        13.6630 
  41   0.0000       0.523433        14.2433 
  42   0.0000       0.551333        15.0025 
  43   0.0000       0.571572        15.5533 
  44   0.0000       0.589217        16.0334 
  45   0.0000       0.610175        16.6037 
  46   0.0000       0.622464        16.9381 
  47   0.0000       0.633754        17.2453 
  48   0.0000       0.646296        17.5866 
  49   0.0000       0.650974        17.7139 
  50   0.0000       0.661470        17.9995 
  51   0.0000       0.675719        18.3872 
  52   0.0000       0.688260        18.7285 
  53   0.0000       0.698834        19.0162 
  54   0.0000       0.709289        19.3007 
  55   0.0000       0.840112        22.8606 
  56   0.0000       0.887073        24.1385 
  57   0.0000       0.930520        25.3207 
  58   0.0000       1.014901        27.6169 
  59   0.0000       1.056942        28.7608 
  60   0.0000       1.072044        29.1718 
  61   0.0000       1.106898        30.1202 
  62   0.0000       1.129700        30.7407 
  63   0.0000       1.236048        33.6346 
  64   0.0000       1.285122        34.9700 
  65   0.0000       1.317279        35.8450 
  66   0.0000       1.357118        36.9291 
  67   0.0000       1.439477        39.1702 
  68   0.0000       1.518768        41.3278 
  69   0.0000       1.551693        42.2237 
  70   0.0000       1.580425        43.0056 
  71   0.0000       1.604158        43.6514 
  72   0.0000       1.653544        44.9952 
  73   0.0000       1.683208        45.8024 
  74   0.0000       1.713244        46.6198 
  75   0.0000       1.731860        47.1263 
  76   0.0000       1.737969        47.2926 
  77   0.0000       1.759998        47.8920 
  78   0.0000       1.771049        48.1927 
  79   0.0000       1.794947        48.8430 
  80   0.0000       1.813001        49.3343 
  81   0.0000       1.852445        50.4076 
  82   0.0000       1.870605        50.9018 
  83   0.0000       1.893611        51.5278 
  84   0.0000       1.939219        52.7688 
  85   0.0000       1.947819        53.0028 
  86   0.0000       1.979139        53.8551 
  87   0.0000       2.072016        56.3824 
  88   0.0000       2.101708        57.1904 
  89   0.0000       2.147880        58.4468 
  90   0.0000       2.229058        60.6557 
  91   0.0000       2.266069        61.6629 
  92   0.0000       2.307619        62.7935 
  93   0.0000       2.373123        64.5760 
  94   0.0000       2.426523        66.0291 
  95   0.0000       2.504315        68.1459 
  96   0.0000       2.607502        70.9537 
  97   0.0000       2.635181        71.7069 
  98   0.0000       2.646504        72.0150 
  99   0.0000       2.681491        72.9671 
 100   0.0000       2.733333        74.3778 
 101   0.0000       2.772270        75.4373 
 102   0.0000       2.801026        76.2198 
 103   0.0000       2.878090        78.3168 
 104   0.0000       2.913562        79.2821 
 105   0.0000       2.958440        80.5032 
 106   0.0000       2.992846        81.4395 
 107   0.0000       3.029211        82.4290 
 108   0.0000       3.045515        82.8727 
 109   0.0000       3.222499        87.6887 
 110   0.0000       3.233079        87.9765 
 111   0.0000       3.317617        90.2769 
 112   0.0000       3.624500        98.6276 
 113   0.0000       3.664773        99.7235 

                    ********************************
                    * MULLIKEN POPULATION ANALYSIS *
                    ********************************

-----------------------
MULLIKEN ATOMIC CHARGES
-----------------------
   0 C :   -0.035135
   1 C :    0.211300
   2 O :   -0.300000
   3 H :    0.027102
   4 H :    0.020130
   5 C :   -0.025291
   6 H :    0.019067
   7 H :    0.028444
   8 C :    0.144861
   9 H :    0.046572
  10 H :    0.042046
  11 O :   -0.179098
Sum of atomic charges:   -0.0000000

--------------------------------
MULLIKEN REDUCED ORBITAL CHARGES
--------------------------------
  0 C s       :     3.037517  s :     3.037517
      pz      :     1.010860  p :     2.962956
      px      :     0.980353
      py      :     0.971743
      dz2     :     0.008549  d :     0.034662
      dxz     :     0.005516
      dyz     :     0.005180
      dx2y2   :     0.008708
      dxy     :     0.006709
  1 C s       :     3.004905  s :     3.004905
      pz      :     1.011942  p :     2.724232
      px      :     0.795003
      py      :     0.917287
      dz2     :     0.011764  d :     0.059563
      dxz     :     0.012167
      dyz     :     0.006351
      dx2y2   :     0.013312
      dxy     :     0.015969
  2 O s       :     3.756762  s :     3.756762
      pz      :     1.729796  p :     4.526546
      px      :     1.198888
      py      :     1.597862
      dz2     :     0.002264  d :     0.016693
      dxz     :     0.002206
      dyz     :     0.002457
      dx2y2   :     0.002535
      dxy     :     0.007231
  3 H s       :     0.951716  s :     0.951716
      pz      :     0.007934  p :     0.021182
      px      :     0.008066
      py      :     0.005182
  4 H s       :     0.958834  s :     0.958834
      pz      :     0.013652  p :     0.021036
      px      :     0.003474
      py      :     0.003909
  5 C s       :     3.011594  s :     3.011594
      pz      :     1.025702  p :     2.980938
      px      :     0.948857
      py      :     1.006379
      dz2     :     0.007997  d :     0.032759
      dxz     :     0.005403
      dyz     :     0.003654
      dx2y2   :     0.007854
      dxy     :     0.007851
  6 H s       :     0.958668  s :     0.958668
      pz      :     0.007244  p :     0.022265
      px      :     0.007167
      py      :     0.007854
  7 H s       :     0.949381  s :     0.949381
      pz      :     0.013510  p :     0.022175
      px      :     0.004129
      py      :     0.004536
  8 C s       :     3.086985  s :     3.086985
      pz      :     0.824257  p :     2.635517
      px      :     0.854513
      py      :     0.956747
      dz2     :     0.008326  d :     0.132636
      dxz     :     0.028402
      dyz     :     0.008782
      dx2y2   :     0.036399
      dxy     :     0.050728
  9 H s       :     0.930285  s :     0.930285
      pz      :     0.013648  p :     0.023142
      px      :     0.004391
      py      :     0.005103
 10 H s       :     0.935514  s :     0.935514
      pz      :     0.007365  p :     0.022440
      px      :     0.006540
      py      :     0.008536
 11 O s       :     3.714328  s :     3.714328
      pz      :     1.381107  p :     4.445471
      px      :     1.365008
      py      :     1.699355
      dz2     :     0.002215  d :     0.019299
      dxz     :     0.005584
      dyz     :     0.000670
      dx2y2   :     0.005832
      dxy     :     0.004999


                     *******************************
                     * LOEWDIN POPULATION ANALYSIS *
                     *******************************

----------------------
LOEWDIN ATOMIC CHARGES
----------------------
   0 C :   -0.044345
   1 C :    0.094091
   2 O :   -0.104671
   3 H :    0.023884
   4 H :    0.016491
   5 C :   -0.063433
   6 H :    0.029999
   7 H :    0.030806
   8 C :    0.079714
   9 H :    0.046943
  10 H :    0.042621
  11 O :   -0.152100

-------------------------------
LOEWDIN REDUCED ORBITAL CHARGES
-------------------------------
  0 C s       :     2.847267  s :     2.847267
      pz      :     1.067586  p :     3.110515
      px      :     1.020966
      py      :     1.021963
      dz2     :     0.021339  d :     0.086563
      dxz     :     0.012475
      dyz     :     0.012262
      dx2y2   :     0.024884
      dxy     :     0.015604
  1 C s       :     2.854249  s :     2.854249
      pz      :     1.070149  p :     2.918104
      px      :     0.864910
      py      :     0.983045
      dz2     :     0.027596  d :     0.133557
      dxz     :     0.028953
      dyz     :     0.012383
      dx2y2   :     0.030831
      dxy     :     0.033794
  2 O s       :     3.471304  s :     3.471304
      pz      :     1.710531  p :     4.602222
      px      :     1.261044
      py      :     1.630647
      dz2     :     0.004061  d :     0.031144
      dxz     :     0.004029
      dyz     :     0.002620
      dx2y2   :     0.005043
      dxy     :     0.015390
  3 H s       :     0.912221  s :     0.912221
      pz      :     0.022496  p :     0.063895
      px      :     0.025156
      py      :     0.016243
  4 H s       :     0.919432  s :     0.919432
      pz      :     0.040504  p :     0.064077
      px      :     0.011471
      py      :     0.012101
  5 C s       :     2.852978  s :     2.852978
      pz      :     1.068828  p :     3.126238
      px      :     1.017401
      py      :     1.040010
      dz2     :     0.020319  d :     0.084217
      dxz     :     0.011901
      dyz     :     0.010061
      dx2y2   :     0.022690
      dxy     :     0.019245
  6 H s       :     0.904175  s :     0.904175
      pz      :     0.020306  p :     0.065826
      px      :     0.022093
      py      :     0.023427
  7 H s       :     0.903773  s :     0.903773
      pz      :     0.038944  p :     0.065421
      px      :     0.013078
      py      :     0.013399
  8 C s       :     2.860622  s :     2.860622
      pz      :     0.815047  p :     2.765016
      px      :     0.972864
      py      :     0.977106
      dz2     :     0.018575  d :     0.294648
      dxz     :     0.055361
      dyz     :     0.015580
      dx2y2   :     0.085171
      dxy     :     0.119961
  9 H s       :     0.886075  s :     0.886075
      pz      :     0.038998  p :     0.066982
      px      :     0.013190
      py      :     0.014794
 10 H s       :     0.890384  s :     0.890384
      pz      :     0.020312  p :     0.066994
      px      :     0.020306
      py      :     0.026377
 11 O s       :     3.537464  s :     3.537464
      pz      :     1.380328  p :     4.582158
      px      :     1.490023
      py      :     1.711807
      dz2     :     0.004480  d :     0.032478
      dxz     :     0.007225
      dyz     :     0.000839
      dx2y2   :     0.011064
      dxy     :     0.008869


                      *****************************
                      * MAYER POPULATION ANALYSIS *
                      *****************************

  NA   - Mulliken gross atomic population
  ZA   - Total nuclear charge
  QA   - Mulliken gross atomic charge
  VA   - Mayer's total valence
  BVA  - Mayer's bonded valence
  FA   - Mayer's free valence

  ATOM       NA         ZA         QA         VA         BVA        FA
  0 C      6.0351     6.0000    -0.0351     4.0913     4.0913    -0.0000
  1 C      5.7887     6.0000     0.2113     3.9701     3.9701    -0.0000
  2 O      8.3000     8.0000    -0.3000     2.1890     2.1890     0.0000
  3 H      0.9729     1.0000     0.0271     0.9796     0.9796    -0.0000
  4 H      0.9799     1.0000     0.0201     0.9759     0.9759     0.0000
  5 C      6.0253     6.0000    -0.0253     3.9201     3.9201    -0.0000
  6 H      0.9809     1.0000     0.0191     0.9789     0.9789    -0.0000
  7 H      0.9716     1.0000     0.0284     0.9725     0.9725     0.0000
  8 C      5.8551     6.0000     0.1449     4.3473     4.3473     0.0000
  9 H      0.9534     1.0000     0.0466     0.9861     0.9861     0.0000
 10 H      0.9580     1.0000     0.0420     0.9968     0.9968    -0.0000
 11 O      8.1791     8.0000    -0.1791     2.3314     2.3314     0.0000

  Mayer bond orders larger than 0.100000
B(  0-C ,  1-C ) :   1.0758 B(  0-C ,  5-C ) :   1.0820 B(  0-C ,  6-H ) :   0.9394 
B(  0-C ,  7-H ) :   0.9435 B(  1-C ,  2-O ) :   0.9450 B(  1-C ,  3-H ) :   0.9569 
B(  1-C ,  4-H ) :   0.9508 B(  2-O ,  8-C ) :   1.1169 B(  5-C ,  8-C ) :   0.9669 
B(  5-C ,  9-H ) :   0.9269 B(  5-C , 10-H ) :   0.9392 B(  8-C , 11-O ) :   2.1938 


-------
TIMINGS
-------

Total SCF time: 0 days 0 hours 0 min 26 sec 

Total time                  ....      26.985 sec
Sum of individual times     ....      26.637 sec  ( 98.7%)

Fock matrix formation       ....      24.694 sec  ( 91.5%)
  Split-RI-J                ....       1.414 sec  (  5.7% of F)
  Chain of spheres X        ....      19.357 sec  ( 78.4% of F)
  XC integration            ....       3.884 sec  ( 15.7% of F)
    Basis function eval.    ....       1.482 sec  ( 38.2% of XC)
    Density eval.           ....       1.038 sec  ( 26.7% of XC)
    XC-Functional eval.     ....       0.398 sec  ( 10.2% of XC)
    XC-Potential eval.      ....       0.665 sec  ( 17.1% of XC)
Diagonalization             ....       0.005 sec  (  0.0%)
Density matrix formation    ....       0.003 sec  (  0.0%)
Population analysis         ....       0.029 sec  (  0.1%)
Initial guess               ....       0.011 sec  (  0.0%)
Orbital Transformation      ....       0.000 sec  (  0.0%)
Orbital Orthonormalization  ....       0.003 sec  (  0.0%)
DIIS solution               ....       0.001 sec  (  0.0%)
SOSCF solution              ....       0.025 sec  (  0.1%)
Grid generation             ....       1.869 sec  (  6.9%)

Maximum memory used throughout the entire SCF-calculation: 57.9 MB


-------------------------------------------------------------------------------
                          DFT DISPERSION CORRECTION                            
                                                                               
                              DFTD3 V3.1  Rev 1                                
                          USING Becke-Johnson damping                          
-------------------------------------------------------------------------------
The B3LYP functional is recognized
Active option DFTDOPT                   ...         4   

molecular C6(AA) [au] = 1226.349971 


            DFT-D V3
 parameters
 s6 scaling factor         :     1.0000 
 a1 scaling factor         :     0.3981 
 s8 scaling factor         :     1.9889 
 a2 scaling factor         :     4.4211 
 ad hoc parameters k1-k3   :    16.0000     1.3333    -4.0000 

 Edisp/kcal,au: -9.647646358176  -0.015374501466 
 E6   /kcal   :  -4.640369207 
 E8   /kcal   :  -5.007277151 
 % E8         :  51.901541219 

-------------------------   ----------------
Dispersion correction           -0.015374501
-------------------------   ----------------


-------------------------   --------------------
FINAL SINGLE POINT ENERGY      -306.112532637545
-------------------------   --------------------

                                *** OPTIMIZATION RUN DONE ***

                            ***************************************
                            *     ORCA property calculations      *
                            ***************************************

                                    ---------------------
                                    Active property flags
                                    ---------------------
   (+) Dipole Moment


------------------------------------------------------------------------------
                       ORCA ELECTRIC PROPERTIES CALCULATION
------------------------------------------------------------------------------

Dipole Moment Calculation                       ... on
Quadrupole Moment Calculation                   ... off
Polarizability Calculation                      ... off
GBWName                                         ... lactone.gbw
Electron density                                ... lactone.scfp
The origin for moment calculation is the CENTER OF MASS  = (-1.895214,  3.627290 -0.209845)

-------------
DIPOLE MOMENT
-------------
                                X             Y             Z
Electronic contribution:      4.25404      -3.77565      -0.73282
Nuclear contribution   :     -5.63513       4.78017       1.01678
                        -----------------------------------------
Total Dipole Moment    :     -1.38108       1.00452       0.28396
                        -----------------------------------------
Magnitude (a.u.)       :      1.73121
Magnitude (Debye)      :      4.40039



--------------------
Rotational spectrum 
--------------------
 
Rotational constants in cm-1:     0.242899     0.119204     0.085243 
Rotational constants in MHz :  7281.918709  3573.634312  2555.522165 

 Dipole components along the rotational axes: 
x,y,z [a.u.] :     1.634960     0.548399     0.152483 
x,y,z [Debye]:     4.155738     1.393921     0.387580 

 

Timings for individual modules:

Sum of individual times         ...      349.499 sec (=   5.825 min)
GTO integral calculation        ...        2.930 sec (=   0.049 min)   0.8 %
SCF iterations                  ...      267.171 sec (=   4.453 min)  76.4 %
SCF Gradient evaluation         ...       78.617 sec (=   1.310 min)  22.5 %
Geometry relaxation             ...        0.781 sec (=   0.013 min)   0.2 %
                             ****ORCA TERMINATED NORMALLY****
TOTAL RUN TIME: 0 days 0 hours 5 minutes 51 seconds 970 msec
