
                                 *****************
                                 * O   R   C   A *
                                 *****************

                                            #,                                       
                                            ###                                      
                                            ####                                     
                                            #####                                    
                                            ######                                   
                                           ########,                                 
                                     ,,################,,,,,                         
                               ,,#################################,,                 
                          ,,##########################################,,             
                       ,#########################################, ''#####,          
                    ,#############################################,,   '####,        
                  ,##################################################,,,,####,       
                ,###########''''           ''''###############################       
              ,#####''   ,,,,##########,,,,          '''####'''          '####       
            ,##' ,,,,###########################,,,                        '##       
           ' ,,###''''                  '''############,,,                           
         ,,##''                                '''############,,,,        ,,,,,,###''
      ,#''                                            '''#######################'''  
     '                                                          ''''####''''         
             ,#######,   #######,   ,#######,      ##                                
            ,#'     '#,  ##    ##  ,#'     '#,    #''#        ######   ,####,        
            ##       ##  ##   ,#'  ##            #'  '#       #        #'  '#        
            ##       ##  #######   ##           ,######,      #####,   #    #        
            '#,     ,#'  ##    ##  '#,     ,#' ,#      #,         ##   #,  ,#        
             '#######'   ##     ##  '#######'  #'      '#     #####' # '####'        



                  #######################################################
                  #                        -***-                        #
                  #          Department of theory and spectroscopy      #
                  #    Directorship and core code : Frank Neese         #
                  #        Max Planck Institute fuer Kohlenforschung    #
                  #                Kaiser Wilhelm Platz 1               #
                  #                 D-45470 Muelheim/Ruhr               #
                  #                      Germany                        #
                  #                                                     #
                  #                  All rights reserved                #
                  #                        -***-                        #
                  #######################################################



                         Program Version 5.0.4 -  RELEASE  -

 With contributions from (in alphabetic order):
   Daniel Aravena         : Magnetic Suceptibility
   Michael Atanasov       : Ab Initio Ligand Field Theory (pilot matlab implementation)
   Alexander A. Auer      : GIAO ZORA, VPT2 properties, NMR spectrum
   Ute Becker             : Parallelization
   Giovanni Bistoni       : ED, misc. LED, open-shell LED, HFLD
   Martin Brehm           : Molecular dynamics
   Dmytro Bykov           : SCF Hessian
   Vijay G. Chilkuri      : MRCI spin determinant printing, contributions to CSF-ICE
   Dipayan Datta          : RHF DLPNO-CCSD density
   Achintya Kumar Dutta   : EOM-CC, STEOM-CC
   Dmitry Ganyushin       : Spin-Orbit,Spin-Spin,Magnetic field MRCI
   Miquel Garcia          : C-PCM and meta-GGA Hessian, CC/C-PCM, Gaussian charge scheme
   Yang Guo               : DLPNO-NEVPT2, F12-NEVPT2, CIM, IAO-localization
   Andreas Hansen         : Spin unrestricted coupled pair/coupled cluster methods
   Benjamin Helmich-Paris : MC-RPA, TRAH-SCF, COSX integrals
   Lee Huntington         : MR-EOM, pCC
   Robert Izsak           : Overlap fitted RIJCOSX, COSX-SCS-MP3, EOM
   Marcus Kettner         : VPT2
   Christian Kollmar      : KDIIS, OOCD, Brueckner-CCSD(T), CCSD density, CASPT2, CASPT2-K
   Simone Kossmann        : Meta GGA functionals, TD-DFT gradient, OOMP2, MP2 Hessian
   Martin Krupicka        : Initial AUTO-CI
   Lucas Lang             : DCDCAS
   Marvin Lechner         : AUTO-CI (C++ implementation), FIC-MRCC
   Dagmar Lenk            : GEPOL surface, SMD
   Dimitrios Liakos       : Extrapolation schemes; Compound Job, initial MDCI parallelization
   Dimitrios Manganas     : Further ROCIS development; embedding schemes
   Dimitrios Pantazis     : SARC Basis sets
   Anastasios Papadopoulos: AUTO-CI, single reference methods and gradients
   Taras Petrenko         : DFT Hessian,TD-DFT gradient, ASA, ECA, R-Raman, ABS, FL, XAS/XES, NRVS
   Peter Pinski           : DLPNO-MP2, DLPNO-MP2 Gradient
   Christoph Reimann      : Effective Core Potentials
   Marius Retegan         : Local ZFS, SOC
   Christoph Riplinger    : Optimizer, TS searches, QM/MM, DLPNO-CCSD(T), (RO)-DLPNO pert. Triples
   Tobias Risthaus        : Range-separated hybrids, TD-DFT gradient, RPA, STAB
   Michael Roemelt        : Original ROCIS implementation
   Masaaki Saitow         : Open-shell DLPNO-CCSD energy and density
   Barbara Sandhoefer     : DKH picture change effects
   Avijit Sen             : IP-ROCIS
   Kantharuban Sivalingam : CASSCF convergence, NEVPT2, FIC-MRCI
   Bernardo de Souza      : ESD, SOC TD-DFT
   Georgi Stoychev        : AutoAux, RI-MP2 NMR, DLPNO-MP2 response
   Willem Van den Heuvel  : Paramagnetic NMR
   Boris Wezisla          : Elementary symmetry handling
   Frank Wennmohs         : Technical directorship


 We gratefully acknowledge several colleagues who have allowed us to
 interface, adapt or use parts of their codes:
   Stefan Grimme, W. Hujo, H. Kruse, P. Pracht,  : VdW corrections, initial TS optimization,
                  C. Bannwarth, S. Ehlert          DFT functionals, gCP, sTDA/sTD-DF
   Ed Valeev, F. Pavosevic, A. Kumar             : LibInt (2-el integral package), F12 methods
   Garnet Chan, S. Sharma, J. Yang, R. Olivares  : DMRG
   Ulf Ekstrom                                   : XCFun DFT Library
   Mihaly Kallay                                 : mrcc  (arbitrary order and MRCC methods)
   Jiri Pittner, Ondrej Demel                    : Mk-CCSD
   Frank Weinhold                                : gennbo (NPA and NBO analysis)
   Christopher J. Cramer and Donald G. Truhlar   : smd solvation model
   Lars Goerigk                                  : TD-DFT with DH, B97 family of functionals
   V. Asgeirsson, H. Jonsson                     : NEB implementation
   FAccTs GmbH                                   : IRC, NEB, NEB-TS, DLPNO-Multilevel, CI-OPT
                                                   MM, QMMM, 2- and 3-layer-ONIOM, Crystal-QMMM,
                                                   LR-CPCM, SF, NACMEs, symmetry and pop. for TD-DFT,
                                                   nearIR, NL-DFT gradient (VV10), updates on ESD,
                                                   ML-optimized integration grids
   S Lehtola, MJT Oliveira, MAL Marques          : LibXC Library
   Liviu Ungur et al                             : ANISO software


 Your calculation uses the libint2 library for the computation of 2-el integrals
 For citations please refer to: http://libint.valeyev.net

 Your ORCA version has been built with support for libXC version: 5.1.0
 For citations please refer to: https://tddft.org/programs/libxc/

 This ORCA versions uses:
   CBLAS   interface :  Fast vector & matrix operations
   LAPACKE interface :  Fast linear algebra routines
   Shared memory     :  Shared parallel matrices


Your calculation utilizes the atom-pairwise dispersion correction
based on tight binding partial charges (D4)
Cite in your paper:
E.Caldeweyher, C.Bannwarth, S.Grimme, J.Chem.Phys., (2017), 147, 034112.
E.Caldeweyher, S.Ehlert, A.Hansen, H.Neugebauer, S.Grimme, J.Chem.Phys., (2018), in progress.
   

================================================================================

----- Orbital basis set information -----
Your calculation utilizes the basis: def2-SVP
   F. Weigend and R. Ahlrichs, Phys. Chem. Chem. Phys. 7, 3297 (2005).

----- AuxJ basis set information -----
Your calculation utilizes the auxiliary basis: def2/J
   F. Weigend, Phys. Chem. Chem. Phys. 8, 1057 (2006).

================================================================================
                                        WARNINGS
                       Please study these warnings very carefully!
================================================================================


WARNING: Geometry Optimization
  ===> : Switching off AutoStart
         For restart on a previous wavefunction, please use MOREAD

INFO   : the flag for use of the SHARK integral package has been found!

================================================================================
                                       INPUT FILE
================================================================================
NAME = opt3.inp
|  1> !B3LYP DEF2-SVP OPT FREQ D4 SOSCF
|  2> 
|  3> %geom
|  4> maxIter 1000
|  5> end
|  6> 
|  7> * xyz 1 1
|  8>    C       -0.89671        1.83690       11.19755
|  9>    C       -0.39510        1.30333       12.37687
| 10>    C        0.28712        0.14397       12.34719
| 11>    C        0.49195       -0.51832       11.16076
| 12>    C        0.00000        0.00000        9.99318
| 13>    C       -0.68501        1.15844        9.99947
| 14>    H       -0.55626        1.81992       13.29480
| 15>    H        0.66993       -0.26069       13.25046
| 16>    H        1.03208       -1.43372       11.14683
| 17>    H        0.16014       -0.51691        9.07610
| 18>    H       -1.06939        1.56347        9.09609
| 19>    N       -1.56140        2.96742       11.21574
| 20>    H       -1.71829        3.46005       12.05848
| 21>    H       -1.92269        3.35892       10.38740
| 22>    N        0.00000        0.00000        0.00000
| 23>    O       -0.94223        0.65847       -0.69949
| 24>    O        0.80531        0.18898        1.02883
| 25> **                         ****END OF INPUT****
================================================================================

                       *****************************
                       * Geometry Optimization Run *
                       *****************************

Geometry optimization settings:
Update method            Update   .... BFGS
Choice of coordinates    CoordSys .... Z-matrix Internals
Initial Hessian          InHess   .... Almoef's Model

Convergence Tolerances:
Energy Change            TolE     ....  5.0000e-06 Eh
Max. Gradient            TolMAXG  ....  3.0000e-04 Eh/bohr
RMS Gradient             TolRMSG  ....  1.0000e-04 Eh/bohr
Max. Displacement        TolMAXD  ....  4.0000e-03 bohr
RMS Displacement         TolRMSD  ....  2.0000e-03 bohr
Strict Convergence                ....  False
------------------------------------------------------------------------------
                        ORCA OPTIMIZATION COORDINATE SETUP
------------------------------------------------------------------------------

The optimization will be done in new redundant internal coordinates
Making redundant internal coordinates   ...  (new redundants) done
Evaluating the initial hessian          ...  (Almloef) done
Evaluating the coordinates              ...  done
Calculating the B-matrix                .... done
Calculating the G-matrix                .... done
Diagonalizing the G-matrix              .... done
The first mode is                       ....   55
The number of degrees of freedom        ....   45

    -----------------------------------------------------------------
                    Redundant Internal Coordinates


    -----------------------------------------------------------------
         Definition                    Initial Value    Approx d2E/dq
    -----------------------------------------------------------------
      1. B(C   1,C   0)                  1.3882         0.628937   
      2. B(C   2,C   1)                  1.3455         0.735708   
      3. B(C   3,C   2)                  1.3741         0.662335   
      4. B(C   4,C   3)                  1.3689         0.675129   
      5. B(C   5,C   4)                  1.3458         0.734864   
      6. B(C   5,C   0)                  1.3930         0.617890   
      7. B(H   6,C   1)                  1.0656         0.393917   
      8. B(H   7,C   2)                  1.0612         0.400256   
      9. B(H   8,C   3)                  1.0630         0.397702   
     10. B(H   9,C   4)                  1.0648         0.394975   
     11. B(H  10,C   5)                  1.0620         0.399079   
     12. B(N  11,C   0)                  1.3116         0.746455   
     13. B(H  12,N  11)                  0.9887         0.467942   
     14. B(H  13,N  11)                  0.9849         0.474574   
     15. B(N  14,H   9)                  9.0922         0.000000   
     16. B(O  15,N  14)                  1.3456         0.589975   
     17. B(O  16,H  10)                  8.3955         0.000000   
     18. B(O  16,H   9)                  8.1039         0.000000   
     19. B(O  16,C   5)                  9.1451         0.000000   
     20. B(O  16,C   4)                  9.0024         0.000000   
     21. B(O  16,N  14)                  1.3201         0.647879   
     22. A(C   1,C   0,C   5)          119.2441         0.434919   
     23. A(C   1,C   0,N  11)          120.1750         0.447068   
     24. A(C   5,C   0,N  11)          120.5809         0.445635   
     25. A(C   2,C   1,H   6)          120.8916         0.368961   
     26. A(C   0,C   1,H   6)          119.3956         0.359199   
     27. A(C   0,C   1,C   2)          119.7128         0.448856   
     28. A(C   1,C   2,C   3)          120.6583         0.453095   
     29. A(C   1,C   2,H   7)          119.5171         0.369974   
     30. A(C   3,C   2,H   7)          119.8247         0.363372   
     31. A(C   2,C   3,H   8)          120.1407         0.362974   
     32. A(C   4,C   3,H   8)          119.8352         0.364163   
     33. A(C   2,C   3,C   4)          120.0241         0.446082   
     34. A(C   3,C   4,O  16)          145.6006         0.089608   
     35. A(C   3,C   4,H   9)          119.7836         0.363735   
     36. A(C   5,C   4,O  16)           91.8404         0.089620   
     37. A(C   3,C   4,C   5)          120.3212         0.454580   
     38. A(C   5,C   4,H   9)          119.8953         0.369058   
     39. A(H   9,C   4,O  16)           30.5868         0.089466   
     40. A(C   0,C   5,H  10)          119.3954         0.358912   
     41. A(H  10,C   5,O  16)           42.6943         0.089414   
     42. A(C   4,C   5,O  16)           79.7014         0.089550   
     43. A(C   0,C   5,O  16)          156.9323         0.089529   
     44. A(C   0,C   5,C   4)          120.0395         0.447323   
     45. A(C   4,C   5,H  10)          120.5651         0.369714   
     46. A(H  12,N  11,H  13)          117.4279         0.311694   
     47. A(C   0,N  11,H  13)          121.1240         0.376180   
     48. A(C   0,N  11,H  12)          121.4480         0.375267   
     49. A(O  15,N  14,O  16)          139.6612         0.422310   
     50. A(C   4,O  16,C   5)            8.4582         0.089001   
     51. A(C   5,O  16,N  14)          132.8622         0.089526   
     52. A(C   4,O  16,N  14)          135.9284         0.089592   
     53. D(H   6,C   1,C   0,C   5)   -179.9543         0.027420   
     54. D(C   2,C   1,C   0,C   5)      0.0737         0.027420   
     55. D(H   6,C   1,C   0,N  11)      0.0690         0.027420   
     56. D(C   2,C   1,C   0,N  11)   -179.9031         0.027420   
     57. D(C   3,C   2,C   1,C   0)     -0.0395         0.038460   
     58. D(H   7,C   2,C   1,C   0)    179.9475         0.038460   
     59. D(C   3,C   2,C   1,H   6)    179.9889         0.038460   
     60. D(H   7,C   2,C   1,H   6)     -0.0241         0.038460   
     61. D(H   8,C   3,C   2,C   1)   -179.9981         0.030627   
     62. D(H   8,C   3,C   2,H   7)      0.0150         0.030627   
     63. D(C   4,C   3,C   2,H   7)   -179.9975         0.030627   
     64. D(C   4,C   3,C   2,C   1)     -0.0106         0.030627   
     65. D(H   9,C   4,C   3,C   2)   -179.9399         0.034708   
     66. D(C   5,C   4,C   3,H   8)   -179.9865         0.034708   
     67. D(O  16,C   4,C   3,H   8)    -23.0569         0.034708   
     68. D(O  16,C   4,C   3,C   2)    156.9555         0.034708   
     69. D(H   9,C   4,C   3,H   8)      0.0477         0.034708   
     70. D(C   5,C   4,C   3,C   2)      0.0259         0.034708   
     71. D(H  10,C   5,C   4,O  16)     12.8710         0.044932   
     72. D(H  10,C   5,C   4,H   9)      0.0396         0.044932   
     73. D(H  10,C   5,C   4,C   3)   -179.9262         0.044932   
     74. D(C   0,C   5,C   4,H   9)    179.9750         0.044932   
     75. D(C   0,C   5,C   4,C   3)      0.0092         0.044932   
     76. D(O  16,C   5,C   0,N  11)     33.7389         0.028695   
     77. D(O  16,C   5,C   0,C   1)   -146.2378         0.028695   
     78. D(C   0,C   5,C   4,O  16)   -167.1936         0.044932   
     79. D(H  10,C   5,C   0,C   1)    179.8774         0.028695   
     80. D(C   4,C   5,C   0,N  11)    179.9179         0.028695   
     81. D(H  10,C   5,C   0,N  11)     -0.1460         0.028695   
     82. D(O  16,C   5,C   4,C   3)    167.2029         0.044932   
     83. D(C   4,C   5,C   0,C   1)     -0.0587         0.028695   
     84. D(O  16,C   5,C   4,H   9)    -12.8314         0.044932   
     85. D(H  13,N  11,C   0,C   5)     -0.0293         0.046741   
     86. D(H  13,N  11,C   0,C   1)    179.9471         0.046741   
     87. D(H  12,N  11,C   0,C   5)   -179.9355         0.046741   
     88. D(H  12,N  11,C   0,C   1)      0.0409         0.046741   
     89. D(C   5,O  16,N  14,O  15)     68.4121         0.047223   
     90. D(C   4,O  16,C   5,H  10)   -163.5689         0.001500   
     91. D(C   4,O  16,C   5,C   0)    150.6773         0.001500   
     92. D(N  14,O  16,C   5,H  10)    -48.5287         0.001500   
     93. D(N  14,O  16,C   5,C   4)    115.0402         0.001500   
     94. D(N  14,O  16,C   5,C   0)    -94.2825         0.001500   
     95. D(C   5,O  16,C   4,H   9)    157.7671         0.001500   
     96. D(C   5,O  16,C   4,C   3)   -160.2185         0.001500   
     97. D(N  14,O  16,C   4,H   9)     85.0647         0.001500   
     98. D(C   4,O  16,N  14,O  15)     79.4578         0.047223   
     99. D(N  14,O  16,C   4,C   5)    -72.7024         0.001500   
    100. D(N  14,O  16,C   4,C   3)    127.0790         0.001500   
    -----------------------------------------------------------------

Number of atoms                         .... 17
Number of degrees of freedom            .... 100

         *************************************************************
         *                GEOMETRY OPTIMIZATION CYCLE   1            *
         *************************************************************
---------------------------------
CARTESIAN COORDINATES (ANGSTROEM)
---------------------------------
  C     -0.896710    1.836900   11.197550
  C     -0.395100    1.303330   12.376870
  C      0.287120    0.143970   12.347190
  C      0.491950   -0.518320   11.160760
  C      0.000000    0.000000    9.993180
  C     -0.685010    1.158440    9.999470
  H     -0.556260    1.819920   13.294800
  H      0.669930   -0.260690   13.250460
  H      1.032080   -1.433720   11.146830
  H      0.160140   -0.516910    9.076100
  H     -1.069390    1.563470    9.096090
  N     -1.561400    2.967420   11.215740
  H     -1.718290    3.460050   12.058480
  H     -1.922690    3.358920   10.387400
  N      0.000000    0.000000    0.000000
  O     -0.942230    0.658470   -0.699490
  O      0.805310    0.188980    1.028830

----------------------------
CARTESIAN COORDINATES (A.U.)
----------------------------
  NO LB      ZA    FRAG     MASS         X           Y           Z
   0 C     6.0000    0    12.011   -1.694536    3.471238   21.160303
   1 C     6.0000    0    12.011   -0.746631    2.462937   23.388895
   2 C     6.0000    0    12.011    0.542578    0.272064   23.332808
   3 C     6.0000    0    12.011    0.929651   -0.979483   21.090780
   4 C     6.0000    0    12.011    0.000000    0.000000   18.884373
   5 C     6.0000    0    12.011   -1.294481    2.189134   18.896260
   6 H     1.0000    0     1.008   -1.051179    3.439150   25.123531
   7 H     1.0000    0     1.008    1.265984   -0.492633   25.039741
   8 H     1.0000    0     1.008    1.950349   -2.709338   21.064456
   9 H     1.0000    0     1.008    0.302621   -0.976818   17.151343
  10 H     1.0000    0     1.008   -2.020854    2.954530   17.189119
  11 N     7.0000    0    14.007   -2.950618    5.607611   21.194677
  12 H     1.0000    0     1.008   -3.247098    6.538547   22.787225
  13 H     1.0000    0     1.008   -3.633358    6.347439   19.629341
  14 N     7.0000    0    14.007    0.000000    0.000000    0.000000
  15 O     8.0000    0    15.999   -1.780557    1.244328   -1.321845
  16 O     8.0000    0    15.999    1.521815    0.357120    1.944207

--------------------------------
INTERNAL COORDINATES (ANGSTROEM)
--------------------------------
 C      0   0   0     0.000000000000     0.00000000     0.00000000
 C      1   0   0     1.388202146447     0.00000000     0.00000000
 C      2   1   0     1.345518725399   119.71279909     0.00000000
 C      3   2   1     1.374117723450   120.65825747   359.96053202
 C      4   3   2     1.368909595737   120.02413773     0.00000000
 C      5   4   3     1.345831155012   120.32115642     0.02593017
 H      2   1   3     1.065567106568   119.39559479   179.97201255
 H      3   2   1     1.061220949944   119.51706951   179.94747412
 H      4   3   2     1.062963603234   120.14067271   180.00188734
 H      5   4   3     1.064836369636   119.78356742   180.06014553
 H      6   5   4     1.062022932756   120.56508351   180.07384516
 N      1   2   3     1.311571249532   120.17500263   180.09694667
 H     12   1   2     0.988690799290   121.44802546     0.04087802
 H     12   1   2     0.984860330047   121.12400489   179.94712314
 N     10   5   4     9.092218209969   146.04400302   195.45139247
 O     15  10   5     1.345610037827   123.99101467   320.79818754
 O     15  10   5     1.320124541625    38.68745130    89.75426509

---------------------------
INTERNAL COORDINATES (A.U.)
---------------------------
 C      0   0   0     0.000000000000     0.00000000     0.00000000
 C      1   0   0     2.623321875306     0.00000000     0.00000000
 C      2   1   0     2.542661899067   119.71279909     0.00000000
 C      3   2   1     2.596706173088   120.65825747   359.96053202
 C      4   3   2     2.586864238039   120.02413773     0.00000000
 C      5   4   3     2.543252305471   120.32115642     0.02593017
 H      2   1   3     2.013630008729   119.39559479   179.97201255
 H      3   2   1     2.005416962974   119.51706951   179.94747412
 H      4   3   2     2.008710100438   120.14067271   180.00188734
 H      5   4   3     2.012249116051   119.78356742   180.06014553
 H      6   5   4     2.006932490853   120.56508351   180.07384516
 N      1   2   3     2.478510466741   120.17500263   180.09694667
 H     12   1   2     1.868354841785   121.44802546     0.04087802
 H     12   1   2     1.861116303952   121.12400489   179.94712314
 N     10   5   4    17.181802366694   146.04400302   195.45139247
 O     15  10   5     2.542834454548   123.99101467   320.79818754
 O     15  10   5     2.494673846339    38.68745130    89.75426509

---------------------
BASIS SET INFORMATION
---------------------
There are 4 groups of distinct atoms

 Group   1 Type C   : 7s4p1d contracted to 3s2p1d pattern {511/31/1}
 Group   2 Type H   : 4s1p contracted to 2s1p pattern {31/1}
 Group   3 Type N   : 7s4p1d contracted to 3s2p1d pattern {511/31/1}
 Group   4 Type O   : 7s4p1d contracted to 3s2p1d pattern {511/31/1}

Atom   0C    basis set group =>   1
Atom   1C    basis set group =>   1
Atom   2C    basis set group =>   1
Atom   3C    basis set group =>   1
Atom   4C    basis set group =>   1
Atom   5C    basis set group =>   1
Atom   6H    basis set group =>   2
Atom   7H    basis set group =>   2
Atom   8H    basis set group =>   2
Atom   9H    basis set group =>   2
Atom  10H    basis set group =>   2
Atom  11N    basis set group =>   3
Atom  12H    basis set group =>   2
Atom  13H    basis set group =>   2
Atom  14N    basis set group =>   3
Atom  15O    basis set group =>   4
Atom  16O    basis set group =>   4
---------------------------------
AUXILIARY/J BASIS SET INFORMATION
---------------------------------
There are 4 groups of distinct atoms

 Group   1 Type C   : 12s5p4d2f1g contracted to 6s4p3d1f1g pattern {711111/2111/211/2/1}
 Group   2 Type H   : 5s2p1d contracted to 3s1p1d pattern {311/2/1}
 Group   3 Type N   : 12s5p4d2f1g contracted to 6s4p3d1f1g pattern {711111/2111/211/2/1}
 Group   4 Type O   : 12s5p4d2f1g contracted to 6s4p3d1f1g pattern {711111/2111/211/2/1}

Atom   0C    basis set group =>   1
Atom   1C    basis set group =>   1
Atom   2C    basis set group =>   1
Atom   3C    basis set group =>   1
Atom   4C    basis set group =>   1
Atom   5C    basis set group =>   1
Atom   6H    basis set group =>   2
Atom   7H    basis set group =>   2
Atom   8H    basis set group =>   2
Atom   9H    basis set group =>   2
Atom  10H    basis set group =>   2
Atom  11N    basis set group =>   3
Atom  12H    basis set group =>   2
Atom  13H    basis set group =>   2
Atom  14N    basis set group =>   3
Atom  15O    basis set group =>   4
Atom  16O    basis set group =>   4
------------------------------------------------------------------------------
                           ORCA GTO INTEGRAL CALCULATION
                           -- RI-GTO INTEGRALS CHOSEN --
------------------------------------------------------------------------------
------------------------------------------------------------------------------
                   ___                                                        
                  /   \      - P O W E R E D   B Y -                         
                 /     \                                                     
                 |  |  |   _    _      __       _____    __    __             
                 |  |  |  | |  | |    /  \     |  _  \  |  |  /  |          
                  \  \/   | |  | |   /    \    | | | |  |  | /  /          
                 / \  \   | |__| |  /  /\  \   | |_| |  |  |/  /          
                |  |  |   |  __  | /  /__\  \  |    /   |      \           
                |  |  |   | |  | | |   __   |  |    \   |  |\   \          
                \     /   | |  | | |  |  |  |  | |\  \  |  | \   \       
                 \___/    |_|  |_| |__|  |__|  |_| \__\ |__|  \__/        
                                                                              
                      - O R C A' S   B I G   F R I E N D -                    
                                      &                                       
                       - I N T E G R A L  F E E D E R -                       
                                                                              
 v1 FN, 2020, v2 2021                                                         
------------------------------------------------------------------------------


Reading SHARK input file opt3.SHARKINP.tmp ... ok
----------------------
SHARK INTEGRAL PACKAGE
----------------------

Number of atoms                             ...     17
Number of basis functions                   ...    175
Number of shells                            ...     81
Maximum angular momentum                    ...      2
Integral batch strategy                     ... SHARK/LIBINT Hybrid
RI-J (if used) integral strategy            ... SPLIT-RIJ (Revised 2003 algorithm where possible)
Printlevel                                  ...      1
Contraction scheme used                     ... SEGMENTED contraction
Coulomb Range Separation                    ... NOT USED
Exchange Range Separation                   ... NOT USED
Finite Nucleus Model                        ... NOT USED
Auxiliary Coulomb fitting basis             ... AVAILABLE
   # of basis functions in Aux-J            ...    567
   # of shells in Aux-J                     ...    185
   Maximum angular momentum in Aux-J        ...      4
Auxiliary J/K fitting basis                 ... NOT available
Auxiliary Correlation fitting basis         ... NOT available
Auxiliary 'external' fitting basis          ... NOT available
Integral threshold                          ...     2.500000e-11
Primitive cut-off                           ...     2.500000e-12
Primitive pair pre-selection threshold      ...     2.500000e-12

Calculating pre-screening integrals         ... done (  0.1 sec) Dimension = 81
Organizing shell pair data                  ... done (  0.1 sec)
Shell pair information
Total number of shell pairs                 ...      3321
Shell pairs after pre-screening             ...      2141
Total number of primitive shell pairs       ...     12241
Primitive shell pairs kept                  ...      5967
          la=0 lb=0:    659 shell pairs
          la=1 lb=0:    770 shell pairs
          la=1 lb=1:    247 shell pairs
          la=2 lb=0:    267 shell pairs
          la=2 lb=1:    164 shell pairs
          la=2 lb=2:     34 shell pairs

Calculating one electron integrals          ... done (  0.0 sec)
Calculating RI/J V-Matrix + Cholesky decomp.... done (  0.0 sec)
Calculating Nuclear repulsion               ... done (  0.0 sec) ENN=    391.110691786864 Eh

SHARK setup successfully completed in   0.4 seconds

Maximum memory used throughout the entire GTOINT-calculation: 18.8 MB
-------------------------------------------------------------------------------
                                 ORCA SCF
-------------------------------------------------------------------------------

------------
SCF SETTINGS
------------
Hamiltonian:
 Density Functional     Method          .... DFT(GTOs)
 Exchange Functional    Exchange        .... B88
   X-Alpha parameter    XAlpha          ....  0.666667
   Becke's b parameter  XBeta           ....  0.004200
 Correlation Functional Correlation     .... LYP
 LDA part of GGA corr.  LDAOpt          .... VWN-5
 Gradients option       PostSCFGGA      .... off
 Hybrid DFT is turned on
   Fraction HF Exchange ScalHFX         ....  0.200000
   Scaling of DF-GGA-X  ScalDFX         ....  0.720000
   Scaling of DF-GGA-C  ScalDFC         ....  0.810000
   Scaling of DF-LDA-C  ScalLDAC        ....  1.000000
   Perturbative correction              ....  0.000000
   Density functional embedding theory  .... OFF
   NL short-range parameter             ....  4.800000
 RI-approximation to the Coulomb term is turned on
   Number of AuxJ basis functions       .... 567
   RIJ-COSX (HFX calculated with COS-X)).... on


General Settings:
 Integral files         IntName         .... opt3
 Hartree-Fock type      HFTyp           .... RHF
 Total Charge           Charge          ....    1
 Multiplicity           Mult            ....    1
 Number of Electrons    NEL             ....   72
 Basis Dimension        Dim             ....  175
 Nuclear Repulsion      ENuc            ....    391.1106917869 Eh

Convergence Acceleration:
 DIIS                   CNVDIIS         .... on
   Start iteration      DIISMaxIt       ....    12
   Startup error        DIISStart       ....  0.200000
   # of expansion vecs  DIISMaxEq       ....     5
   Bias factor          DIISBfac        ....   1.050
   Max. coefficient     DIISMaxC        ....  10.000
 Trust-Rad. Augm. Hess. CNVTRAH         .... auto
   Auto Start mean grad. ratio tolernc. ....  1.125000
   Auto Start start iteration           ....    20
   Auto Start num. interpolation iter.  ....    10
   Max. Number of Micro iterations      ....    16
   Max. Number of Macro iterations      .... Maxiter - #DIIS iter
   Number of Davidson start vectors     ....     2
   Converg. threshold I  (grad. norm)   ....   1.000e-05
   Converg. threshold II (energy diff.) ....   1.000e-08
   Grad. Scal. Fac. for Micro threshold ....   0.100
   Minimum threshold for Micro iter.    ....   0.010
   NR start threshold (gradient norm)   ....   0.001
   Initial trust radius                 ....   0.400
   Minimum AH scaling param. (alpha)    ....   1.000
   Maximum AH scaling param. (alpha)    .... 1000.000
   Orbital update algorithm             .... Taylor
   White noise on init. David. guess    .... on
   Maximum white noise                  ....   0.010
   Quad. conv. algorithm                .... NR
 SOSCF                  CNVSOSCF        .... on
   Start iteration      SOSCFMaxIt      ....   150
   Startup grad/error   SOSCFStart      ....  0.003300
 Level Shifting         CNVShift        .... on
   Level shift para.    LevelShift      ....    0.2500
   Turn off err/grad.   ShiftErr        ....    0.0010
 Zerner damping         CNVZerner       .... off
 Static damping         CNVDamp         .... on
   Fraction old density DampFac         ....    0.7000
   Max. Damping (<1)    DampMax         ....    0.9800
   Min. Damping (>=0)   DampMin         ....    0.0000
   Turn off err/grad.   DampErr         ....    0.1000
 Fernandez-Rico         CNVRico         .... off

SCF Procedure:
 Maximum # iterations   MaxIter         ....   125
 SCF integral mode      SCFMode         .... Direct
   Integral package                     .... SHARK and LIBINT hybrid scheme
 Reset frequency        DirectResetFreq ....    20
 Integral Threshold     Thresh          ....  2.500e-11 Eh
 Primitive CutOff       TCut            ....  2.500e-12 Eh

Convergence Tolerance:
 Convergence Check Mode ConvCheckMode   .... Total+1el-Energy
 Convergence forced     ConvForced      .... 0
 Energy Change          TolE            ....  1.000e-08 Eh
 1-El. energy change                    ....  1.000e-05 Eh
 Orbital Gradient       TolG            ....  1.000e-05
 Orbital Rotation angle TolX            ....  1.000e-05
 DIIS Error             TolErr          ....  5.000e-07


Diagonalization of the overlap matrix:
Smallest eigenvalue                        ... 2.401e-04
Time for diagonalization                   ...    0.012 sec
Threshold for overlap eigenvalues          ... 1.000e-08
Number of eigenvalues below threshold      ... 0
Time for construction of square roots      ...    0.006 sec
Total time needed                          ...    0.018 sec

Time for model grid setup =    0.660 sec

------------------------------
INITIAL GUESS: MODEL POTENTIAL
------------------------------
Loading Hartree-Fock densities                     ... done
Calculating cut-offs                               ... done
Initializing the effective Hamiltonian             ... done
Setting up the integral package (SHARK)            ... done
Starting the Coulomb interaction                   ... done (   0.4 sec)
Reading the grid                                   ... done
Mapping shells                                     ... done
Starting the XC term evaluation                    ... done (   0.5 sec)
  promolecular density results
     # of electrons  =     72.995147029
     EX              =    -62.410310100
     EC              =     -2.492484258
     EX+EC           =    -64.902794359
Transforming the Hamiltonian                       ... done (   0.0 sec)
Diagonalizing the Hamiltonian                      ... done (   0.0 sec)
Back transforming the eigenvectors                 ... done (   0.0 sec)
Now organizing SCF variables                       ... done
                      ------------------
                      INITIAL GUESS DONE (   1.6 sec)
                      ------------------
-------------------
DFT GRID GENERATION
-------------------

General Integration Accuracy     IntAcc      ... 4.388
Radial Grid Type                 RadialGrid  ... OptM3 with GC (2021)
Angular Grid (max. ang.)         AngularGrid ... 4 (Lebedev-302)
Angular grid pruning method      GridPruning ... 4 (adaptive)
Weight generation scheme         WeightScheme... Becke
Basis function cutoff            BFCut       ... 1.0000e-11
Integration weight cutoff        WCut        ... 1.0000e-14
Angular grids for H and He will be reduced by one unit
Partially contracted basis set               ... off
Rotationally invariant grid construction     ... off

Total number of grid points                  ...    83113
Total number of batches                      ...     1306
Average number of points per batch           ...       63
Average number of grid points per atom       ...     4889
Time for grid setup =    2.294 sec

--------------------
COSX GRID GENERATION
--------------------

GRIDX 1
-------
General Integration Accuracy     IntAcc      ... 3.816
Radial Grid Type                 RadialGrid  ... OptM3 with GC (2021)
Angular Grid (max. ang.)         AngularGrid ... 1 (Lebedev-50)
Angular grid pruning method      GridPruning ... 4 (adaptive)
Weight generation scheme         WeightScheme... Becke
Basis function cutoff            BFCut       ... 1.0000e-11
Integration weight cutoff        WCut        ... 1.0000e-14
Angular grids for H and He will be reduced by one unit
Partially contracted basis set               ... on
Rotationally invariant grid construction     ... off

Total number of grid points                  ...    10603
Total number of batches                      ...      172
Average number of points per batch           ...       61
Average number of grid points per atom       ...      624
UseSFitting                                  ... on

GRIDX 2
-------
General Integration Accuracy     IntAcc      ... 4.020
Radial Grid Type                 RadialGrid  ... OptM3 with GC (2021)
Angular Grid (max. ang.)         AngularGrid ... 2 (Lebedev-110)
Angular grid pruning method      GridPruning ... 4 (adaptive)
Weight generation scheme         WeightScheme... Becke
Basis function cutoff            BFCut       ... 1.0000e-11
Integration weight cutoff        WCut        ... 1.0000e-14
Angular grids for H and He will be reduced by one unit
Partially contracted basis set               ... on
Rotationally invariant grid construction     ... off

Total number of grid points                  ...    23608
Total number of batches                      ...      377
Average number of points per batch           ...       62
Average number of grid points per atom       ...     1389
UseSFitting                                  ... on

GRIDX 3
-------
General Integration Accuracy     IntAcc      ... 4.338
Radial Grid Type                 RadialGrid  ... OptM3 with GC (2021)
Angular Grid (max. ang.)         AngularGrid ... 3 (Lebedev-194)
Angular grid pruning method      GridPruning ... 4 (adaptive)
Weight generation scheme         WeightScheme... Becke
Basis function cutoff            BFCut       ... 1.0000e-11
Integration weight cutoff        WCut        ... 1.0000e-14
Angular grids for H and He will be reduced by one unit
Partially contracted basis set               ... on
Rotationally invariant grid construction     ... off

Total number of grid points                  ...    52165
Total number of batches                      ...      825
Average number of points per batch           ...       63
Average number of grid points per atom       ...     3069
UseSFitting                                  ... on

Time for X-Grid setup             =    2.333 sec

--------------
SCF ITERATIONS
--------------
ITER       Energy         Delta-E        Max-DP      RMS-DP      [F,P]     Damp
               ***  Starting incremental Fock matrix formation  ***
  0   -491.1307791733   0.000000000000 0.26379355  0.00536038  0.2411840 0.7000
  1   -491.3726518039  -0.241872630572 0.09185479  0.00280507  0.0903121 0.7000
                               ***Turning on DIIS***
  2   -491.3701066335   0.002545170316 0.28885410  0.00654220  0.0810380 0.0000
  3   -491.3495114484   0.020595185123 0.01792473  0.00035971  0.1728895 0.7000
  4   -491.3776989345  -0.028187486065 0.01785344  0.00037108  0.1586254 0.7000
  5   -491.4042294128  -0.026530478328 0.01507642  0.00032682  0.1433822 0.7000
  6   -491.4257215339  -0.021492121105 0.01296476  0.00029617  0.1299962 0.7000
  7   -491.4435123564  -0.017790822440 0.13483637  0.00423265  0.1184207 0.7000
  8   -491.5050171517  -0.061504795357 0.25163167  0.00986115  0.0383484 0.0000
  9   -488.1754187400   3.329598411744 0.00762025  0.00019452  0.3705152 0.7000
 10   -488.1955895735  -0.020170833485 0.00768140  0.00020588  0.3665422 0.7000
 11   -488.2145206947  -0.018931121205 0.00606243  0.00017092  0.3627325 0.7000
 12   -488.2284924427  -0.013971748059 0.00635654  0.00015210  0.3597921 0.7000
 13   -488.2367774295  -0.008284986780 8.38874332  0.10355138  0.3583340 0.7000
 14   -485.0971520084   3.139625421089 2.52444516  0.03126391  0.2725548 0.7000
 15   -486.1296241471  -1.032472138647 1.75569187  0.02184237  0.2062632 0.7000
 16   -487.9353695722  -1.805745425173 1.22448275  0.01527248  0.1936146 0.7000
 17   -489.0845109962  -1.149141423963 0.85662206  0.01069544  0.1960546 0.7000
 18   -489.8514074258  -0.766896429641 0.61140550  0.00847760  0.1924641 0.7000
 19   -490.7972476491  -0.945840223227 1.38914134  0.01932289  0.0546414 0.0000
               *** Restarting incremental Fock matrix formation ***
                                   *** Resetting DIIS ***

 WARNING: the maximum gradient error descreased on average only by a factor   1.1
          during the last 20 iterations

                      *** Initiating the TRAH-SCF procedure ***


TRAH GRIDX
----------

General Integration Accuracy     IntAcc      ... 3.067
Radial Grid Type                 RadialGrid  ... OptM3 with GC (2021)
Angular Grid (max. ang.)         AngularGrid ... 1 (Lebedev-50)
Angular grid pruning method      GridPruning ... 4 (adaptive)
Weight generation scheme         WeightScheme... Becke
Basis function cutoff            BFCut       ... 1.0000e-11
Integration weight cutoff        WCut        ... 1.0000e-14
Angular grids for H and He will be reduced by one unit
Partially contracted basis set               ... on
Rotationally invariant grid construction     ... off

Total number of grid points                  ...     5625
Total number of batches                      ...       98
Average number of points per batch           ...       57
Average number of grid points per atom       ...      331


TRAH GRID
---------

General Integration Accuracy     IntAcc      ... 3.467
Radial Grid Type                 RadialGrid  ... OptM3 with GC (2021)
Angular Grid (max. ang.)         AngularGrid ... 1 (Lebedev-50)
Angular grid pruning method      GridPruning ... 4 (adaptive)
Weight generation scheme         WeightScheme... Becke
Basis function cutoff            BFCut       ... 1.0000e-11
Integration weight cutoff        WCut        ... 1.0000e-14
Angular grids for H and He will be reduced by one unit
Partially contracted basis set               ... off
Rotationally invariant grid construction     ... off

Total number of grid points                  ...    12330
Total number of batches                      ...      201
Average number of points per batch           ...       61
Average number of grid points per atom       ...      725

 --------------------------------------------------------------------------------------------
   Iter.        energy            ||Error||_2        Shift      TRadius  Mac/Mic        Rej.
 --------------------------------------------------------------------------------------------
WARNING: 587 diagonal Hessian elements are negative!
    0       -488.035252770999     3.783223e+00                     0.400 (TRAH MAcro)   No
WARNING : negative HOMO - LUMO gap : -2.260394
    0     dE    -6.381387e-01     1.066628e+00    -7.5975e+00      0.231 (TRAH MIcro)
    0     dE    -6.693565e-01     7.914157e-02    -7.7795e+00      0.239 (TRAH MIcro)
    0     dE    -6.694990e-01     1.003040e-02    -7.7811e+00      0.239 (TRAH MIcro)
    0     dE    -6.695011e-01     6.560004e-03    -7.7811e+00      0.239 (TRAH MIcro)
WARNING: 510 diagonal Hessian elements are negative!
    1       -488.699303964805     1.798325e+00                     0.480 (TRAH MAcro)   No
WARNING : negative HOMO - LUMO gap : -1.929546
    1     dE    -1.641578e-01     3.492429e-01    -5.6139e+00      0.130 (TRAH MIcro)
    1     dE    -1.735652e-01     5.724504e-02    -5.7673e+00      0.136 (TRAH MIcro)
    1     dE    -1.742153e-01     6.447324e-02    -5.7721e+00      0.137 (TRAH MIcro)
    1     dE    -1.294433e-01     3.037379e-02    -1.2373e+01      0.090 (TRAH MIcro)
    1     dE    -1.294488e-01     2.307030e-02    -1.2374e+01      0.090 (TRAH MIcro)
    1     dE    -1.294449e-01     3.224715e-03    -1.2375e+01      0.090 (TRAH MIcro)
WARNING: 488 diagonal Hessian elements are negative!
    2       -488.828663950599     1.105693e+00                     0.576 (TRAH MAcro)   No
WARNING : negative HOMO - LUMO gap : -1.821285
    2     dE    -6.310732e-02     2.128717e-01    -6.6631e+00      0.078 (TRAH MIcro)
    2     dE    -6.687380e-02     3.385181e-02    -6.8419e+00      0.082 (TRAH MIcro)
    2     dE    -6.718146e-02     2.085483e-02    -6.8469e+00      0.082 (TRAH MIcro)
    2     dE    -7.312625e-01     8.977219e-01    -6.9434e+00      0.445 (TRAH MIcro)
    2     dE    -4.619837e-02     1.165604e-02    -1.5105e+01      0.050 (TRAH MIcro)
    2     dE    -4.619951e-02     8.960539e-03    -1.5106e+01      0.050 (TRAH MIcro)
WARNING: 472 diagonal Hessian elements are negative!
    3       -488.874862621559     7.541457e-01                     0.691 (TRAH MAcro)   No
WARNING : negative HOMO - LUMO gap : -1.766373
    3     dE    -3.587070e-02     2.090061e-01    -4.0470e+00      0.069 (TRAH MIcro)
    3     dE    -1.143865e-01     1.385599e+00    -4.7021e+00      0.189 (TRAH MIcro)
    3     dE    -2.861470e-02     2.338834e-02    -9.7327e+00      0.047 (TRAH MIcro)
    3     dE    -2.864105e-02     1.095967e-02    -9.7364e+00      0.048 (TRAH MIcro)
    3     dE    -2.864921e-02     2.743525e-03    -9.7380e+00      0.048 (TRAH MIcro)
WARNING: 464 diagonal Hessian elements are negative!
    4       -488.903519702039     4.634205e-01                     0.829 (TRAH MAcro)   No
WARNING : negative HOMO - LUMO gap : -1.720298
    4     dE    -7.301679e-01     9.493322e+00    -2.8632e+00      0.705 (TRAH MIcro)
    4     dE    -1.392352e+00     1.010611e-01    -6.9348e+00      0.631 (TRAH MIcro)
    4     dE    -1.374138e+00     5.293249e-02    -6.9386e+00      0.626 (TRAH MIcro)
    4     dE    -1.342195e+00     2.751631e-02    -6.9395e+00      0.619 (TRAH MIcro)
    4     dE    -1.311883e+00     1.310717e-02    -6.9397e+00      0.612 (TRAH MIcro)
    4     dE    -1.296773e+00     5.989773e-03    -6.9397e+00      0.608 (TRAH MIcro)
WARNING: 292 diagonal Hessian elements are negative!
    5       -489.892426562216     2.486003e+00                     0.995 (TRAH MAcro)   No
WARNING : negative HOMO - LUMO gap : -1.150177
    5     dE    -2.435052e+00     1.666526e+00    -2.4603e+00      0.990 (TRAH MIcro)
    5     dE    -2.568719e+00     5.993843e-01    -2.8008e+00      0.995 (TRAH MIcro)
    5     dE    -2.605489e+00     1.399039e+00    -3.0645e+00      0.993 (TRAH MIcro)
    5     dE    -1.300229e+00     3.571952e-01    -4.9532e+00      0.518 (TRAH MIcro)
    5     dE    -1.300408e+00     1.211258e-01    -4.9623e+00      0.518 (TRAH MIcro)
    5     dE    -1.300544e+00     3.233237e-02    -4.9635e+00      0.518 (TRAH MIcro)
    5     dE    -1.300503e+00     1.437887e-02    -4.9636e+00      0.517 (TRAH MIcro)
    5     dE    -1.300497e+00     3.307059e-03    -4.9636e+00      0.517 (TRAH MIcro)
WARNING: 87 diagonal Hessian elements are negative!
    6       -490.974241033002     1.468572e+00                     1.194 (TRAH MAcro)   No
WARNING : negative HOMO - LUMO gap : -0.688991
    6     dE    -3.457554e-01     6.047878e-01    -5.9381e-01      0.406 (TRAH MIcro)
    6     dE    -1.187544e+00     6.450901e+00    -1.1887e+00      1.194 (TRAH MIcro)
    6     dE    -2.836668e-01     7.130731e-02    -3.1170e+00      0.259 (TRAH MIcro)
    6     dE    -2.828627e-01     2.289129e-02    -3.1194e+00      0.258 (TRAH MIcro)
    6     dE    -2.828849e-01     3.865671e-03    -3.1197e+00      0.258 (TRAH MIcro)
WARNING: 54 diagonal Hessian elements are negative!
    7       -491.253133596115     7.656300e-01                     1.433 (TRAH MAcro)   No
WARNING : negative HOMO - LUMO gap : -0.562534
    7     dE    -1.625227e-01     2.848989e+00    -2.7643e-01      0.419 (TRAH MIcro)
    7     dE    -2.609455e+00     6.077228e-01    -2.3438e+00      1.433 (TRAH MIcro)
    7     dE    -2.483365e+00     1.464175e-01    -2.3683e+00      1.390 (TRAH MIcro)
    7     dE    -2.500361e+00     4.508539e-02    -2.3695e+00      1.395 (TRAH MIcro)
    7     dE    -2.502448e+00     6.756827e-03    -2.3696e+00      1.395 (TRAH MIcro)
WARNING: 40 diagonal Hessian elements are negative!
    8       -491.366594531182     1.688729e+00                     1.003 (TRAH MAcro)   No
WARNING : negative HOMO - LUMO gap : -0.555237
    8     dE    -1.664495e-01     1.520863e+00    -3.1888e-01      0.210 (TRAH MIcro)
    8     dE    -1.110324e+00     2.801252e+00    -1.6691e+00      1.003 (TRAH MIcro)
    8     dE    -1.334668e+00     8.183704e-01    -2.2143e+00      1.003 (TRAH MIcro)
    8     dE    -2.867511e-01     2.340149e-01    -2.6619e+00      0.317 (TRAH MIcro)
    8     dE    -2.806803e-01     2.781229e-02    -2.6697e+00      0.309 (TRAH MIcro)
    8     dE    -2.808017e-01     4.022170e-03    -2.6700e+00      0.309 (TRAH MIcro)
WARNING: 8 diagonal Hessian elements are negative!
    9       -491.604402735334     4.125662e-01                     1.204 (TRAH MAcro)   No
WARNING : negative HOMO - LUMO gap : -0.177993
    9     dE    -2.602459e-02     8.063027e-01    -5.1164e-02      0.132 (TRAH MIcro)
    9     dE    -3.037298e-01     8.366662e-01    -2.8394e-01      1.067 (TRAH MIcro)
    9     dE    -5.707910e-01     6.023551e-01    -6.2420e-01      1.204 (TRAH MIcro)
    9     dE    -5.818444e-01     2.024760e-01    -6.6761e-01      1.187 (TRAH MIcro)
    9     dE    -5.970615e-01     1.005661e-01    -6.7022e-01      1.203 (TRAH MIcro)
    9     dE    -5.982051e-01     4.784359e-02    -6.7157e-01      1.204 (TRAH MIcro)
    9     dE    -5.983566e-01     2.257731e-02    -6.7181e-01      1.204 (TRAH MIcro)
    9     dE    -5.985041e-01     2.967161e-02    -6.7209e-01      1.204 (TRAH MIcro)
    9     dE    -5.986486e-01     2.608725e-02    -6.7252e-01      1.204 (TRAH MIcro)
    9     dE    -5.987152e-01     8.797679e-03    -6.7281e-01      1.204 (TRAH MIcro)
 ---------------------------------
          TRAH Step control 
 ---------------------------------
  predicted energy change = -0.598715
  actual energy  change   = 0.581665
  energy change ratio     = -0.971522
  old trust radius        = 1.203949
  new trust radius        = 0.842764
  reject step?            =  1
   10       -491.604402735334     1.688729e+00                     0.843 (TRAH MAcro)  Yes
WARNING: 8 diagonal Hessian elements are negative!
   11       -491.604402735333     4.125662e-01                     0.843 (TRAH MAcro)   No
WARNING : negative HOMO - LUMO gap : -0.177993
   11     dE    -2.583194e-02     7.910531e-01    -5.0800e-02      0.130 (TRAH MIcro)
   11     dE    -2.359285e-01     6.308737e-01    -3.4970e-01      0.838 (TRAH MIcro)
   11     dE    -3.261906e-01     3.867780e-01    -6.8551e-01      0.834 (TRAH MIcro)
   11     dE    -3.398940e-01     1.740456e-01    -7.1673e-01      0.843 (TRAH MIcro)
   11     dE    -3.416550e-01     5.833502e-02    -7.2371e-01      0.843 (TRAH MIcro)
   11     dE    -3.419512e-01     1.682385e-02    -7.2505e-01      0.843 (TRAH MIcro)
   11     dE    -3.419915e-01     1.187805e-02    -7.2518e-01      0.843 (TRAH MIcro)
   11     dE    -3.420227e-01     1.517675e-02    -7.2532e-01      0.843 (TRAH MIcro)
   11     dE    -3.420392e-01     1.028082e-02    -7.2553e-01      0.843 (TRAH MIcro)
   11     dE    -3.420480e-01     3.020509e-03    -7.2562e-01      0.843 (TRAH MIcro)
 ---------------------------------
          TRAH Step control 
 ---------------------------------
  predicted energy change = -0.342048
  actual energy  change   = 0.128206
  energy change ratio     = -0.374818
  old trust radius        = 0.842764
  new trust radius        = 0.589935
  reject step?            =  1
   12       -491.604402735333     1.688729e+00                     0.590 (TRAH MAcro)  Yes
WARNING: 8 diagonal Hessian elements are negative!
   13       -491.604402735333     4.125662e-01                     0.590 (TRAH MAcro)   No
WARNING : negative HOMO - LUMO gap : -0.177993
   13     dE    -2.581702e-02     7.953307e-01    -5.0772e-02      0.130 (TRAH MIcro)
   13     dE    -1.642592e-01     4.092074e-01    -4.7555e-01      0.590 (TRAH MIcro)
   13     dE    -1.992932e-01     2.902393e-01    -7.5356e-01      0.590 (TRAH MIcro)
   13     dE    -2.039769e-01     1.163512e-01    -7.9587e-01      0.590 (TRAH MIcro)
   13     dE    -1.363951e-01     2.685644e-02    -9.0547e-01      0.432 (TRAH MIcro)
   13     dE    -1.363342e-01     1.352648e-02    -9.0570e-01      0.432 (TRAH MIcro)
   13     dE    -1.363476e-01     2.829087e-03    -9.0577e-01      0.432 (TRAH MIcro)
   14       -491.665773226519     3.144850e-01                     0.590 (TRAH MAcro)   No
WARNING : small    HOMO - LUMO gap : 0.018396
   14     dE    -6.173356e-03     2.249658e-01    -1.2326e-02      0.041 (TRAH MIcro)
   14     dE    -7.541427e-03     8.386057e-02    -1.5023e-02      0.063 (TRAH MIcro)
   14     dE    -8.709375e-03     3.248940e-02    -1.7314e-02      0.078 (TRAH MIcro)
   14     dE    -8.779638e-03     1.162451e-02    -1.7449e-02      0.080 (TRAH MIcro)
   14     dE    -8.786811e-03     4.753657e-03    -1.7462e-02      0.080 (TRAH MIcro)
   15       -491.675081678186     2.365872e-02                     0.708 (TRAH MAcro)   No
WARNING : small    HOMO - LUMO gap : 0.010535
   15     dE    -9.882099e-05     3.678036e-02    -1.9763e-04      0.008 (TRAH MIcro)
   15     dE    -1.388645e-04     4.482986e-02    -2.7767e-04      0.014 (TRAH MIcro)
   15     dE    -2.702700e-04     1.977510e-02    -5.4015e-04      0.027 (TRAH MIcro)
   15     dE    -2.863478e-04     7.628343e-03    -5.7223e-04      0.028 (TRAH MIcro)
   15     dE    -2.883112e-04     4.094836e-03    -5.7615e-04      0.029 (TRAH MIcro)
   15     dE    -2.889784e-04     1.097958e-03    -5.7748e-04      0.029 (TRAH MIcro)
   16       -491.675378207380     2.984949e-03                     0.850 (TRAH MAcro)   No
WARNING : small    HOMO - LUMO gap : 0.009596
   16     dE    -6.424194e-07     3.535920e-03    -1.2848e-06      0.000 (TRAH MIcro)
   16     dE    -8.990982e-07     1.411937e-03    -1.7982e-06      0.001 (TRAH MIcro)
   16     dE    -1.183753e-06     7.506334e-04    -2.3675e-06      0.001 (TRAH MIcro)
   16     dE    -1.227677e-06     4.276888e-04    -2.4553e-06      0.001 (TRAH MIcro)
   16     dE    -1.238995e-06     1.836593e-04    -2.4780e-06      0.001 (TRAH MIcro)
   17       -491.675379447388     1.841529e-04                           (NR   MAcro)
WARNING : small    HOMO - LUMO gap : 0.009385
   17     dE    -1.445963e-09     8.075444e-05                           (NR   MIcro)
   17     dE    -1.810044e-09     6.981600e-05                           (NR   MIcro)
   17     dE    -2.156277e-09     3.802480e-05                           (NR   MIcro)
   17     dE    -2.335966e-09     2.444641e-05                           (NR   MIcro)
   17     dE    -2.400573e-09     7.915670e-06                           (NR   MIcro)
   17     dE    -2.405856e-09     3.483025e-06                           (NR   MIcro)
   17     dE    -2.407066e-09     1.021606e-06                           (NR   MIcro)
   17     dE    -2.407167e-09     4.252185e-07                           (NR   MIcro)
   18       -491.675379449646     4.334666e-07                           (NR   MAcro)
WARNING : small    HOMO - LUMO gap : 0.009384

               *****************************************************
               *                     SUCCESS                       *
               *           SCF CONVERGED AFTER 139 CYCLES          *
               *****************************************************

Old exchange energy                            =    -12.484851187 Eh
New exchange energy                            =    -12.484849372 Eh
Exchange energy change after final integration =      0.000001815 Eh
Total energy after final integration           =   -491.675377634 Eh
Final COS-X integration done in                =    30.298 sec

----------------
TOTAL SCF ENERGY
----------------

Total Energy       :         -491.67537763 Eh          -13379.16721 eV

Components:
Nuclear Repulsion  :          391.11069179 Eh           10642.66299 eV
Electronic Energy  :         -882.78606942 Eh          -24021.83020 eV
One Electron Energy:        -1430.53748901 Eh          -38926.90408 eV
Two Electron Energy:          547.75141958 Eh           14905.07389 eV
Max COSX asymmetry :            0.00000177 Eh               0.00005 eV

Virial components:
Potential Energy   :         -979.51420154 Eh          -26653.93648 eV
Kinetic Energy     :          487.83882390 Eh           13274.76927 eV
Virial Ratio       :            2.00786439


DFT components:
N(Alpha)           :       36.000009368454 electrons
N(Beta)            :       36.000009368454 electrons
N(Total)           :       72.000018736908 electrons
E(X)               :      -49.906561566610 Eh       
E(C)               :       -2.907495735701 Eh       
E(XC)              :      -52.814057302311 Eh       
DFET-embed. en.    :        0.000000000000 Eh       

---------------
SCF CONVERGENCE
---------------

  Last Energy change         ...   -2.2580e-09  Tolerance :   1.0000e-08
  Last Orbital Gradient      ...    4.3347e-07  Tolerance :   1.0000e-05
  Last Orbital Rotation      ...    6.1532e-05

             **** THE GBW FILE WAS UPDATED (opt3.gbw) ****
             **** DENSITY opt3.scfp WAS UPDATED ****
             **** ENERGY FILE WAS UPDATED (opt3.en.tmp) ****
             **** THE GBW FILE WAS UPDATED (opt3.gbw) ****
             **** DENSITY opt3.scfp WAS UPDATED ****
----------------
ORBITAL ENERGIES
----------------

  NO   OCC          E(Eh)            E(eV) 
   0   2.0000     -19.392705      -527.7023 
   1   2.0000     -19.387563      -527.5624 
   2   2.0000     -14.695562      -399.8866 
   3   2.0000     -14.539589      -395.6423 
   4   2.0000     -10.408365      -283.2260 
   5   2.0000     -10.347429      -281.5679 
   6   2.0000     -10.346694      -281.5479 
   7   2.0000     -10.345227      -281.5079 
   8   2.0000     -10.338711      -281.3306 
   9   2.0000     -10.338179      -281.3161 
  10   2.0000      -1.286426       -35.0054 
  11   2.0000      -1.174071       -31.9481 
  12   2.0000      -1.126888       -30.6642 
  13   2.0000      -1.017172       -27.6787 
  14   2.0000      -0.916743       -24.9458 
  15   2.0000      -0.897283       -24.4163 
  16   2.0000      -0.795568       -21.6485 
  17   2.0000      -0.791634       -21.5415 
  18   2.0000      -0.782591       -21.2954 
  19   2.0000      -0.712582       -19.3904 
  20   2.0000      -0.704960       -19.1829 
  21   2.0000      -0.662827       -18.0364 
  22   2.0000      -0.652573       -17.7574 
  23   2.0000      -0.625736       -17.0271 
  24   2.0000      -0.625051       -17.0085 
  25   2.0000      -0.611246       -16.6328 
  26   2.0000      -0.595801       -16.2126 
  27   2.0000      -0.590209       -16.0604 
  28   2.0000      -0.578853       -15.7514 
  29   2.0000      -0.525378       -14.2963 
  30   2.0000      -0.505841       -13.7646 
  31   2.0000      -0.494123       -13.4458 
  32   2.0000      -0.487731       -13.2718 
  33   2.0000      -0.483465       -13.1557 
  34   2.0000      -0.424611       -11.5543 
  35   2.0000      -0.359733        -9.7888 
  36   0.0000      -0.350348        -9.5335 
  37   0.0000      -0.260099        -7.0777 
  38   0.0000      -0.156796        -4.2666 
  39   0.0000      -0.145407        -3.9567 
  40   0.0000      -0.088372        -2.4047 
  41   0.0000      -0.076718        -2.0876 
  42   0.0000      -0.057701        -1.5701 
  43   0.0000      -0.055889        -1.5208 
  44   0.0000      -0.006742        -0.1835 
  45   0.0000      -0.004871        -0.1325 
  46   0.0000       0.011716         0.3188 
  47   0.0000       0.030957         0.8424 
  48   0.0000       0.042326         1.1518 
  49   0.0000       0.105227         2.8634 
  50   0.0000       0.125491         3.4148 
  51   0.0000       0.141454         3.8492 
  52   0.0000       0.155828         4.2403 
  53   0.0000       0.158552         4.3144 
  54   0.0000       0.179308         4.8792 
  55   0.0000       0.221352         6.0233 
  56   0.0000       0.253126         6.8879 
  57   0.0000       0.264463         7.1964 
  58   0.0000       0.271779         7.3955 
  59   0.0000       0.308198         8.3865 
  60   0.0000       0.309322         8.4171 
  61   0.0000       0.349048         9.4981 
  62   0.0000       0.360615         9.8128 
  63   0.0000       0.365235         9.9386 
  64   0.0000       0.380392        10.3510 
  65   0.0000       0.380776        10.3614 
  66   0.0000       0.384792        10.4707 
  67   0.0000       0.398975        10.8567 
  68   0.0000       0.407745        11.0953 
  69   0.0000       0.453099        12.3294 
  70   0.0000       0.458004        12.4629 
  71   0.0000       0.505803        13.7636 
  72   0.0000       0.520853        14.1731 
  73   0.0000       0.540896        14.7185 
  74   0.0000       0.543126        14.7792 
  75   0.0000       0.554890        15.0993 
  76   0.0000       0.560832        15.2610 
  77   0.0000       0.561430        15.2773 
  78   0.0000       0.565357        15.3841 
  79   0.0000       0.568114        15.4592 
  80   0.0000       0.582651        15.8547 
  81   0.0000       0.603306        16.4168 
  82   0.0000       0.605663        16.4809 
  83   0.0000       0.617735        16.8094 
  84   0.0000       0.641874        17.4663 
  85   0.0000       0.673274        18.3207 
  86   0.0000       0.701313        19.0837 
  87   0.0000       0.731712        19.9109 
  88   0.0000       0.739477        20.1222 
  89   0.0000       0.756121        20.5751 
  90   0.0000       0.780528        21.2393 
  91   0.0000       0.781267        21.2594 
  92   0.0000       0.827447        22.5160 
  93   0.0000       0.854435        23.2504 
  94   0.0000       0.869461        23.6592 
  95   0.0000       0.900823        24.5126 
  96   0.0000       0.920390        25.0451 
  97   0.0000       0.991450        26.9787 
  98   0.0000       1.016463        27.6594 
  99   0.0000       1.048074        28.5195 
 100   0.0000       1.093286        29.7498 
 101   0.0000       1.098377        29.8884 
 102   0.0000       1.101018        29.9602 
 103   0.0000       1.113863        30.3098 
 104   0.0000       1.121425        30.5155 
 105   0.0000       1.134286        30.8655 
 106   0.0000       1.158734        31.5308 
 107   0.0000       1.163655        31.6647 
 108   0.0000       1.183964        32.2173 
 109   0.0000       1.283915        34.9371 
 110   0.0000       1.364293        37.1243 
 111   0.0000       1.470912        40.0256 
 112   0.0000       1.529128        41.6097 
 113   0.0000       1.540904        41.9301 
 114   0.0000       1.581210        43.0269 
 115   0.0000       1.594671        43.3932 
 116   0.0000       1.606222        43.7075 
 117   0.0000       1.609573        43.7987 
 118   0.0000       1.618529        44.0424 
 119   0.0000       1.632059        44.4106 
 120   0.0000       1.646175        44.7947 
 121   0.0000       1.665161        45.3113 
 122   0.0000       1.673596        45.5409 
 123   0.0000       1.688550        45.9478 
 124   0.0000       1.705395        46.4062 
 125   0.0000       1.744026        47.4574 
 126   0.0000       1.792893        48.7871 
 127   0.0000       1.792962        48.7890 
 128   0.0000       1.811576        49.2955 
 129   0.0000       1.816159        49.4202 
 130   0.0000       1.847073        50.2614 
 131   0.0000       1.879349        51.1397 
 132   0.0000       1.937947        52.7342 
 133   0.0000       1.961712        53.3809 
 134   0.0000       1.962417        53.4001 
 135   0.0000       1.999922        54.4206 
 136   0.0000       2.001852        54.4732 
 137   0.0000       2.017973        54.9118 
 138   0.0000       2.060966        56.0817 
 139   0.0000       2.084200        56.7140 
 140   0.0000       2.092703        56.9454 
 141   0.0000       2.095090        57.0103 
 142   0.0000       2.113463        57.5103 
 143   0.0000       2.184642        59.4471 
 144   0.0000       2.234254        60.7972 
 145   0.0000       2.246482        61.1299 
 146   0.0000       2.264192        61.6118 
 147   0.0000       2.377998        64.7086 
 148   0.0000       2.417225        65.7760 
 149   0.0000       2.426561        66.0301 
 150   0.0000       2.427685        66.0607 
 151   0.0000       2.443915        66.5023 
 152   0.0000       2.464247        67.0556 
 153   0.0000       2.484723        67.6127 
 154   0.0000       2.501483        68.0688 
 155   0.0000       2.584690        70.3330 
 156   0.0000       2.610352        71.0313 
 157   0.0000       2.630918        71.5909 
 158   0.0000       2.636841        71.7521 
 159   0.0000       2.653121        72.1951 
 160   0.0000       2.668915        72.6249 
 161   0.0000       2.740166        74.5637 
 162   0.0000       2.763007        75.1852 
 163   0.0000       2.793762        76.0221 
 164   0.0000       2.835181        77.1492 
 165   0.0000       2.836813        77.1936 
 166   0.0000       2.968151        80.7675 
 167   0.0000       2.989289        81.3427 
 168   0.0000       3.020971        82.2048 
 169   0.0000       3.111255        84.6616 
 170   0.0000       3.118059        84.8467 
 171   0.0000       3.275106        89.1202 
 172   0.0000       3.470766        94.4443 
 173   0.0000       3.525560        95.9354 
 174   0.0000       3.621838        98.5552 

                    ********************************
                    * MULLIKEN POPULATION ANALYSIS *
                    ********************************

-----------------------
MULLIKEN ATOMIC CHARGES
-----------------------
   0 C :    0.046372
   1 C :    0.035549
   2 C :    0.055346
   3 C :    0.093840
   4 C :    0.052745
   5 C :    0.039649
   6 H :   -0.002286
   7 H :    0.020262
   8 H :    0.026995
   9 H :    0.017843
  10 H :   -0.008211
  11 N :    0.115451
  12 H :    0.146031
  13 H :    0.141964
  14 N :    0.348927
  15 O :   -0.064878
  16 O :   -0.065600
Sum of atomic charges:    1.0000000

--------------------------------
MULLIKEN REDUCED ORBITAL CHARGES
--------------------------------
  0 C s       :     2.976091  s :     2.976091
      pz      :     1.067433  p :     2.908707
      px      :     0.904782
      py      :     0.936492
      dz2     :     0.014923  d :     0.068829
      dxz     :     0.010405
      dyz     :     0.015339
      dx2y2   :     0.015256
      dxy     :     0.012906
  1 C s       :     3.218708  s :     3.218708
      pz      :     0.826592  p :     2.710050
      px      :     0.965862
      py      :     0.917596
      dz2     :     0.007799  d :     0.035693
      dxz     :     0.006067
      dyz     :     0.011365
      dx2y2   :     0.005556
      dxy     :     0.004905
  2 C s       :     3.155156  s :     3.155156
      pz      :     0.886044  p :     2.750798
      px      :     0.923148
      py      :     0.941607
      dz2     :     0.009740  d :     0.038700
      dxz     :     0.006345
      dyz     :     0.010834
      dx2y2   :     0.006041
      dxy     :     0.005741
  3 C s       :     3.165500  s :     3.165500
      pz      :     0.970223  p :     2.702121
      px      :     0.868645
      py      :     0.863254
      dz2     :     0.011850  d :     0.038539
      dxz     :     0.007956
      dyz     :     0.010633
      dx2y2   :     0.003492
      dxy     :     0.004608
  4 C s       :     3.154135  s :     3.154135
      pz      :     0.884338  p :     2.754203
      px      :     0.935761
      py      :     0.934104
      dz2     :     0.009835  d :     0.038917
      dxz     :     0.006086
      dyz     :     0.011072
      dx2y2   :     0.006176
      dxy     :     0.005749
  5 C s       :     3.216032  s :     3.216032
      pz      :     0.829416  p :     2.708736
      px      :     0.949622
      py      :     0.929698
      dz2     :     0.007827  d :     0.035583
      dxz     :     0.005850
      dyz     :     0.011472
      dx2y2   :     0.005396
      dxy     :     0.005038
  6 H s       :     0.977715  s :     0.977715
      pz      :     0.013252  p :     0.024571
      px      :     0.004747
      py      :     0.006572
  7 H s       :     0.955099  s :     0.955099
      pz      :     0.012961  p :     0.024639
      px      :     0.005856
      py      :     0.005822
  8 H s       :     0.948675  s :     0.948675
      pz      :     0.003540  p :     0.024330
      px      :     0.007383
      py      :     0.013407
  9 H s       :     0.957705  s :     0.957705
      pz      :     0.013079  p :     0.024452
      px      :     0.004445
      py      :     0.006928
 10 H s       :     0.983498  s :     0.983498
      pz      :     0.012975  p :     0.024712
      px      :     0.006164
      py      :     0.005574
 11 N s       :     3.245900  s :     3.245900
      pz      :     1.033009  p :     3.620694
      px      :     1.407261
      py      :     1.180424
      dz2     :     0.003584  d :     0.017954
      dxz     :     0.002147
      dyz     :     0.005810
      dx2y2   :     0.003289
      dxy     :     0.003125
 12 H s       :     0.807129  s :     0.807129
      pz      :     0.021913  p :     0.046840
      px      :     0.011055
      py      :     0.013873
 13 H s       :     0.810958  s :     0.810958
      pz      :     0.021503  p :     0.047078
      px      :     0.013287
      py      :     0.012289
 14 N s       :     3.535392  s :     3.535392
      pz      :     0.961393  p :     3.054279
      px      :     0.934553
      py      :     1.158333
      dz2     :     0.015658  d :     0.061401
      dxz     :     0.012641
      dyz     :     0.011662
      dx2y2   :     0.009628
      dxy     :     0.011811
 15 O s       :     3.927812  s :     3.927812
      pz      :     1.453181  p :     4.120157
      px      :     1.276137
      py      :     1.390838
      dz2     :     0.002537  d :     0.016909
      dxz     :     0.004605
      dyz     :     0.002727
      dx2y2   :     0.003165
      dxy     :     0.003875
 16 O s       :     3.918993  s :     3.918993
      pz      :     1.207302  p :     4.128405
      px      :     1.363706
      py      :     1.557397
      dz2     :     0.004834  d :     0.018202
      dxz     :     0.006616
      dyz     :     0.002762
      dx2y2   :     0.002181
      dxy     :     0.001808


                     *******************************
                     * LOEWDIN POPULATION ANALYSIS *
                     *******************************

----------------------
LOEWDIN ATOMIC CHARGES
----------------------
   0 C :    0.062617
   1 C :    0.004911
   2 C :    0.027019
   3 C :    0.070062
   4 C :    0.022592
   5 C :    0.005513
   6 H :    0.042100
   7 H :    0.048085
   8 H :    0.047848
   9 H :    0.047524
  10 H :    0.039373
  11 N :    0.168791
  12 H :    0.099137
  13 H :    0.095979
  14 N :    0.294012
  15 O :   -0.040515
  16 O :   -0.035048

-------------------------------
LOEWDIN REDUCED ORBITAL CHARGES
-------------------------------
  0 C s       :     2.816313  s :     2.816313
      pz      :     1.103624  p :     2.955751
      px      :     0.900428
      py      :     0.951698
      dz2     :     0.039928  d :     0.165320
      dxz     :     0.023861
      dyz     :     0.038432
      dx2y2   :     0.032812
      dxy     :     0.030288
  1 C s       :     2.840458  s :     2.840458
      pz      :     1.026374  p :     3.058703
      px      :     0.988093
      py      :     1.044236
      dz2     :     0.022736  d :     0.095928
      dxz     :     0.015346
      dyz     :     0.031615
      dx2y2   :     0.012588
      dxy     :     0.013644
  2 C s       :     2.836810  s :     2.836810
      pz      :     1.054054  p :     3.035252
      px      :     0.952192
      py      :     1.029006
      dz2     :     0.026403  d :     0.100919
      dxz     :     0.015242
      dyz     :     0.029867
      dx2y2   :     0.013996
      dxy     :     0.015411
  3 C s       :     2.848384  s :     2.848384
      pz      :     1.069877  p :     2.983274
      px      :     0.907876
      py      :     1.005521
      dz2     :     0.033136  d :     0.098281
      dxz     :     0.019193
      dyz     :     0.028376
      dx2y2   :     0.006793
      dxy     :     0.010783
  4 C s       :     2.836532  s :     2.836532
      pz      :     1.054443  p :     3.039316
      px      :     0.956273
      py      :     1.028600
      dz2     :     0.026691  d :     0.101560
      dxz     :     0.014898
      dyz     :     0.030068
      dx2y2   :     0.014302
      dxy     :     0.015601
  5 C s       :     2.840446  s :     2.840446
      pz      :     1.025220  p :     3.058496
      px      :     0.990776
      py      :     1.042501
      dz2     :     0.022737  d :     0.095544
      dxz     :     0.014647
      dyz     :     0.032137
      dx2y2   :     0.012324
      dxy     :     0.013700
  6 H s       :     0.884305  s :     0.884305
      pz      :     0.038463  p :     0.073595
      px      :     0.015269
      py      :     0.019863
  7 H s       :     0.879612  s :     0.879612
      pz      :     0.037206  p :     0.072303
      px      :     0.017714
      py      :     0.017383
  8 H s       :     0.879063  s :     0.879063
      pz      :     0.012339  p :     0.073089
      px      :     0.022240
      py      :     0.038510
  9 H s       :     0.880967  s :     0.880967
      pz      :     0.037348  p :     0.071510
      px      :     0.013921
      py      :     0.020241
 10 H s       :     0.886371  s :     0.886371
      pz      :     0.037897  p :     0.074256
      px      :     0.019042
      py      :     0.017317
 11 N s       :     2.992942  s :     2.992942
      pz      :     1.173393  p :     3.789678
      px      :     1.380494
      py      :     1.235791
      dz2     :     0.010511  d :     0.048590
      dxz     :     0.006334
      dyz     :     0.017491
      dx2y2   :     0.006820
      dxy     :     0.007433
 12 H s       :     0.773770  s :     0.773770
      pz      :     0.057600  p :     0.127093
      px      :     0.033500
      py      :     0.035994
 13 H s       :     0.775776  s :     0.775776
      pz      :     0.056725  p :     0.128245
      px      :     0.040088
      py      :     0.031432
 14 N s       :     3.334368  s :     3.334368
      pz      :     1.045981  p :     3.250515
      px      :     1.013092
      py      :     1.191441
      dz2     :     0.027710  d :     0.121106
      dxz     :     0.031915
      dyz     :     0.021443
      dx2y2   :     0.017201
      dxy     :     0.022837
 15 O s       :     3.746112  s :     3.746112
      pz      :     1.485081  p :     4.264576
      px      :     1.342825
      py      :     1.436669
      dz2     :     0.003352  d :     0.029827
      dxz     :     0.008800
      dyz     :     0.005074
      dx2y2   :     0.004195
      dxy     :     0.008406
 16 O s       :     3.727965  s :     3.727965
      pz      :     1.297155  p :     4.274768
      px      :     1.411947
      py      :     1.565665
      dz2     :     0.007532  d :     0.032315
      dxz     :     0.014273
      dyz     :     0.004351
      dx2y2   :     0.003441
      dxy     :     0.002717


                      *****************************
                      * MAYER POPULATION ANALYSIS *
                      *****************************

  NA   - Mulliken gross atomic population
  ZA   - Total nuclear charge
  QA   - Mulliken gross atomic charge
  VA   - Mayer's total valence
  BVA  - Mayer's bonded valence
  FA   - Mayer's free valence

  ATOM       NA         ZA         QA         VA         BVA        FA
  0 C      5.9536     6.0000     0.0464     4.0461     4.0461     0.0000
  1 C      5.9645     6.0000     0.0355     3.7811     3.7811     0.0000
  2 C      5.9447     6.0000     0.0553     3.8727     3.8727     0.0000
  3 C      5.9062     6.0000     0.0938     3.7945     3.7945     0.0000
  4 C      5.9473     6.0000     0.0527     3.8714     3.8714     0.0000
  5 C      5.9604     6.0000     0.0396     3.7791     3.7791     0.0000
  6 H      1.0023     1.0000    -0.0023     0.9925     0.9925     0.0000
  7 H      0.9797     1.0000     0.0203     0.9827     0.9827     0.0000
  8 H      0.9730     1.0000     0.0270     0.9816     0.9816     0.0000
  9 H      0.9822     1.0000     0.0178     0.9820     0.9820     0.0000
 10 H      1.0082     1.0000    -0.0082     0.9925     0.9925     0.0000
 11 N      6.8845     7.0000     0.1155     3.5170     3.5170    -0.0000
 12 H      0.8540     1.0000     0.1460     0.9951     0.9951     0.0000
 13 H      0.8580     1.0000     0.1420     0.9967     0.9967     0.0000
 14 N      6.6511     7.0000     0.3489     3.5527     3.5527    -0.0000
[...]
     31      -0.192979  -0.033090  -0.024554   0.229613  -0.206960  -0.012459
     32      -0.329432  -0.030970   0.210735   0.291483  -0.269817  -0.058757
     33       0.027761   0.034423   0.039017   0.013240   0.013055   0.030560
     34      -0.093053  -0.018029  -0.021610  -0.044362  -0.007302  -0.102870
     35      -0.066723   0.041934   0.046193  -0.031867   0.015307  -0.074569
     36       0.147434  -0.130984  -0.087078   0.176920  -0.044487  -0.376727
     37      -0.301305   0.253896   0.185909  -0.319812   0.086155   0.566508
     38      -0.109628   0.075733   0.072379  -0.077031   0.025510   0.018947
     39       0.009106  -0.005072   0.009050  -0.019071  -0.001327   0.119646
     40      -0.228487  -0.171349  -0.140817  -0.212064  -0.058267   0.290326
     41      -0.276789  -0.226798  -0.161799  -0.309002  -0.076202   0.604117
     42      -0.075731   0.000983   0.000012  -0.006285  -0.000067  -0.000598
     43      -0.008071   0.000103   0.000001  -0.000669  -0.000010  -0.000056
     44       0.059669  -0.000776  -0.000008   0.004942   0.000042   0.000494
     45       0.115482  -0.001449  -0.000010   0.007331   0.000068   0.000626
     46       0.064019  -0.000799  -0.000011   0.003662   0.000032   0.000293
     47       0.087920  -0.001077  -0.000008   0.004179   0.000035   0.000294
     48      -0.049184   0.000591   0.000001  -0.001829  -0.000011  -0.000102
     49      -0.056947   0.000704   0.000006  -0.003074  -0.000024  -0.000242
     50      -0.140130   0.001749   0.000012  -0.008516  -0.000071  -0.000724
                 42         43         44         45         46         47    
      0       0.057689  -0.000009  -0.000439   0.002126  -0.000509   0.001107
      1      -0.196301   0.000060   0.001866  -0.001254   0.001447  -0.000609
      2      -0.142239   0.000026   0.001573   0.002424   0.000899   0.001319
      3      -0.089966   0.000036   0.021042  -0.024924   0.011403  -0.007204
      4       0.211490  -0.000074   0.004496  -0.006210   0.004239  -0.004569
      5       0.100053  -0.000024   0.045693  -0.055256   0.027067  -0.019522
      6       0.018124   0.000001  -0.016315   0.013856   0.025524  -0.037809
      7      -0.153013   0.000046   0.016583  -0.013637  -0.029542   0.041448
      8      -0.161343   0.000072  -0.009752   0.008854   0.010661  -0.018749
      9      -0.020975   0.000006   0.003474  -0.000547  -0.013476   0.001141
     10       0.071368  -0.000036  -0.011725   0.001207   0.045444   0.004089
     11       0.051470  -0.000025  -0.008406   0.000506   0.032552   0.007401
     12       0.082201  -0.000056   0.011351   0.007703  -0.012320  -0.023360
     13      -0.188424   0.000076   0.001057   0.000062  -0.006114  -0.007524
     14      -0.085377  -0.000000   0.022959   0.014740  -0.031291  -0.054110
     15      -0.023384  -0.000000  -0.037417  -0.035548  -0.016213  -0.013319
     16       0.173921  -0.000050   0.039748   0.038244   0.018082   0.016004
     17       0.178749  -0.000059  -0.020040  -0.018418  -0.007582  -0.004750
     18       0.188548   0.000001  -0.237078   0.285501  -0.132820   0.091162
     19      -0.248053   0.000047  -0.057308   0.069985  -0.033660   0.024626
     20       0.039842  -0.000017  -0.523433   0.631584  -0.295238   0.204604
     21       0.075171   0.000042   0.193658  -0.165002  -0.293897   0.424183
     22       0.071095  -0.000023  -0.207746   0.176499   0.318203  -0.457120
     23       0.233509  -0.000147   0.101851  -0.087437  -0.150834   0.220470
     24      -0.024251   0.000028  -0.040954   0.004023   0.154928   0.016039
     25       0.082443   0.000012   0.139434  -0.013015  -0.527426  -0.062658
     26       0.059720  -0.000097   0.100614  -0.009003  -0.380545  -0.049709
     27      -0.153851   0.000132  -0.126430  -0.082983   0.157085   0.271561
     28       0.198451  -0.000038  -0.030429  -0.019187   0.042216   0.069552
     29      -0.038155  -0.000092  -0.279620  -0.182529   0.353080   0.605972
     30      -0.087114   0.000083   0.427072   0.406499   0.179244   0.145238
     31      -0.093724   0.000032  -0.457207  -0.435694  -0.192623  -0.157062
     32      -0.286544  -0.000084   0.224126   0.212666   0.093126   0.074202
     33      -0.030999   0.000006   0.000015  -0.000290   0.000064  -0.000127
     34       0.104418  -0.000025  -0.000098   0.000165  -0.000185   0.000066
     35       0.075757  -0.000019  -0.000103  -0.000338  -0.000115  -0.000157
     36       0.240586   0.000092   0.002503  -0.000194   0.000461  -0.000060
     37      -0.340395  -0.000015  -0.003498   0.001554  -0.001964   0.000293
     38       0.014530  -0.000069   0.000261   0.001659  -0.001666   0.000274
     39      -0.090569   0.000101  -0.000889   0.001042   0.000716   0.000278
     40      -0.156060  -0.000017  -0.001785  -0.001828  -0.002026  -0.000500
     41      -0.376436  -0.000117  -0.003980  -0.000426  -0.001268  -0.000129
     42       0.016084   0.452440  -0.000059  -0.000000  -0.000127  -0.000006
     43       0.001743   0.331656  -0.000006  -0.000000  -0.000013  -0.000000
     44      -0.012544   0.624004   0.000047   0.000000   0.000100   0.000005
     45      -0.016175  -0.288500   0.000043   0.000000   0.000092   0.000004
     46      -0.007468  -0.155420   0.000015   0.000000   0.000033   0.000001
     47      -0.007141  -0.204027   0.000003  -0.000000   0.000007   0.000000
     48       0.002091  -0.107626   0.000009   0.000000   0.000019   0.000001
     49       0.005939  -0.134936  -0.000010  -0.000000  -0.000021  -0.000001
     50       0.018132  -0.342220  -0.000045  -0.000000  -0.000095  -0.000005
                 48         49         50    
      0      -0.000166  -0.000568  -0.000413
      1       0.000694   0.001991   0.000233
      2       0.000579   0.001436  -0.000483
      3       0.003794  -0.000505   0.000361
      4       0.002959   0.000795  -0.000304
      5       0.010989   0.000068   0.000300
      6       0.025857   0.000179  -0.000034
      7      -0.026799  -0.000231  -0.000000
      8       0.014803   0.000047  -0.000066
      9       0.015127  -0.000048   0.000050
     10      -0.051092   0.000165  -0.000029
     11      -0.036642   0.000122   0.000059
     12      -0.019896  -0.000090  -0.000049
     13      -0.003503  -0.000078   0.000048
     14      -0.042352  -0.000270  -0.000032
     15      -0.008392   0.000132   0.000292
     16       0.010481   0.000442  -0.000061
     17      -0.002486   0.000824   0.000470
     18      -0.048485   0.000503  -0.000205
     19      -0.013532  -0.000704  -0.001047
     20      -0.109374   0.000029  -0.001736
     21      -0.278358  -0.000623   0.000076
     22       0.298298   0.000507  -0.000007
     23      -0.146835  -0.000534   0.000138
     24      -0.165362   0.000270  -0.000043
     25       0.562987  -0.000912   0.000027
     26       0.406220  -0.000651  -0.000044
     27       0.209347   0.000520   0.000106
     28       0.050593  -0.000128  -0.000090
     29       0.463263   0.000833   0.000085
     30       0.087988  -0.000147  -0.001040
     31      -0.095507  -0.000369   0.001745
     32       0.044498  -0.000763   0.000279
     33       0.000001   0.013061  -0.052845
     34      -0.000015  -0.043153   0.029399
     35      -0.000019  -0.031509  -0.062234
     36       0.000313   0.284250   0.279083
     37      -0.000662   0.076523   0.083337
     38      -0.000253   0.641880   0.641239
     39       0.000032  -0.455552   0.453877
     40      -0.000519   0.487968  -0.491128
     41      -0.000601  -0.229468   0.221878
     42      -0.000095  -0.000781   0.000004
     43      -0.000010  -0.000083  -0.000000
     44       0.000075   0.000613  -0.000004
     45       0.000068   0.000556  -0.000003
     46       0.000024   0.000194  -0.000001
     47       0.000005   0.000028  -0.000000
     48       0.000015   0.000128  -0.000000
     49      -0.000015  -0.000121   0.000001
     50      -0.000070  -0.000566   0.000003


-----------
IR SPECTRUM
-----------

 Mode   freq       eps      Int      T**2         TX        TY        TZ
       cm**-1   L/(mol*cm) km/mol    a.u.
----------------------------------------------------------------------------
  8:      2.87   0.000000    0.00  0.000000  ( 0.000000  0.000000  0.000000)
  9:      3.49   0.000000    0.00  0.000000  ( 0.000000  0.000000  0.000000)
 10:      9.27   0.000021    0.11  0.000712  ( 0.018350 -0.006042  0.018413)
 11:     24.04   0.000374    1.89  0.004857  ( 0.019326 -0.064690  0.017275)
 12:    202.20   0.001352    6.83  0.002086  ( 0.034793  0.023996 -0.017312)
 13:    387.90   0.000546    2.76  0.000439  ( 0.013179 -0.007491  0.014467)
 14:    394.91   0.000000    0.00  0.000000  ( 0.000270 -0.000096 -0.000541)
 15:    453.55   0.033152  167.54  0.022810  (-0.116281 -0.083106  0.048807)
 16:    505.18   0.001225    6.19  0.000757  ( 0.021395  0.016520 -0.005091)
 17:    513.64   0.000013    0.06  0.000008  ( 0.000646 -0.000588 -0.002637)
 18:    531.95   0.128595  649.86  0.075439  ( 0.023569 -0.035973 -0.271274)
 19:    611.77   0.000013    0.07  0.000007  ( 0.002167 -0.001446  0.000238)
 20:    634.21   1.970459  9957.89  0.969559  ( 0.075818 -0.148156 -0.970495)
 21:    671.82   0.007417   37.48  0.003445  (-0.044164 -0.029400  0.025113)
 22:    799.86   0.006823   34.48  0.002662  (-0.039364 -0.026900  0.019716)
 23:    819.33   0.000002    0.01  0.000001  (-0.000788 -0.000409  0.000256)
 24:    836.26   0.004764   24.08  0.001778  (-0.003207  0.000166  0.042041)
 25:    928.02   0.000999    5.05  0.000336  (-0.014030 -0.009558  0.006902)
 26:    995.74   0.020374  102.96  0.006385  (-0.009637  0.017477  0.077375)
 27:   1004.62   0.000000    0.00  0.000000  ( 0.000083 -0.000093 -0.000184)
 28:   1022.67   0.000009    0.04  0.000003  (-0.001023  0.000555 -0.001129)
 29:   1027.32   0.000005    0.03  0.000002  ( 0.001036  0.000659 -0.000235)
 30:   1030.48   0.003255   16.45  0.000986  ( 0.002130 -0.000161 -0.031323)
 31:   1122.43   0.001734    8.76  0.000482  ( 0.014085 -0.008078  0.014782)
 32:   1173.21   0.000009    0.05  0.000002  (-0.001282  0.000882  0.000103)
 33:   1192.05   0.067470  340.97  0.017663  (-0.014986  0.026338  0.129401)
 34:   1350.42   0.000012    0.06  0.000003  ( 0.001111 -0.000823 -0.000975)
 35:   1368.42   2.224351  11240.96  0.507255  ( 0.071056 -0.107224 -0.700507)
 36:   1385.79   0.580981  2936.04  0.130830  ( 0.034766 -0.049771 -0.356572)
 37:   1397.41   0.000020    0.10  0.000004  (-0.001026  0.000833  0.001623)
 38:   1500.50   0.001517    7.67  0.000315  ( 0.010855 -0.006262  0.012588)
 39:   1523.80   0.034099  172.32  0.006983  (-0.015492  0.044600  0.068950)
 40:   1566.31   0.000285    1.44  0.000057  (-0.004748  0.002746 -0.005174)
 41:   1630.85   0.029007  146.59  0.005550  (-0.016730  0.054317  0.048168)
 42:   1666.42   0.223366  1128.80  0.041829  ( 0.027384 -0.058412 -0.194080)
 43:   2033.64   0.065860  332.83  0.010106  ( 0.055415  0.040194  0.073620)
 44:   3189.77   0.001658    8.38  0.000162  (-0.002291  0.006221  0.010873)
 45:   3190.79   0.000001    0.00  0.000000  (-0.000153 -0.000028 -0.000232)
 46:   3203.17   0.003027   15.29  0.000295  (-0.002162  0.003954  0.016569)
 47:   3209.81   0.000010    0.05  0.000001  (-0.000835  0.000427 -0.000229)
 48:   3218.40   0.001280    6.47  0.000124  (-0.001266  0.001354  0.010986)
 49:   3567.81   0.305633  1544.54  0.026733  (-0.024777  0.060585  0.149827)
 50:   3689.68   0.014434   72.94  0.001221  ( 0.021561 -0.012006  0.024734)

* The epsilon (eps) is given for a Dirac delta lineshape.
** The dipole moment derivative (T) already includes vibrational overlap.

The first frequency considered to be a vibration is 8
The total number of vibrations considered is 43


--------------------------
THERMOCHEMISTRY AT 298.15K
--------------------------

Temperature         ... 298.15 K
Pressure            ... 1.00 atm
Total Mass          ... 139.13 AMU

Throughout the following assumptions are being made:
  (1) The electronic state is orbitally nondegenerate
  (2) There are no thermally accessible electronically excited states
  (3) Hindered rotations indicated by low frequency modes are not
      treated as such but are treated as vibrations and this may
      cause some error
  (4) All equations used are the standard statistical mechanics
      equations for an ideal gas
  (5) All vibrations are strictly harmonic

freq.       2.87  E(vib)   ...       0.59 
freq.       3.49  E(vib)   ...       0.59 
freq.       9.27  E(vib)   ...       0.58 
freq.      24.04  E(vib)   ...       0.56 
freq.     202.20  E(vib)   ...       0.35 
freq.     387.90  E(vib)   ...       0.20 
freq.     394.91  E(vib)   ...       0.20 
freq.     453.55  E(vib)   ...       0.16 
freq.     505.18  E(vib)   ...       0.14 
freq.     513.64  E(vib)   ...       0.13 
freq.     531.95  E(vib)   ...       0.13 
freq.     611.77  E(vib)   ...       0.10 
freq.     634.21  E(vib)   ...       0.09 
freq.     671.82  E(vib)   ...       0.08 
freq.     799.86  E(vib)   ...       0.05 
freq.     819.33  E(vib)   ...       0.05 
freq.     836.26  E(vib)   ...       0.04 
freq.     928.02  E(vib)   ...       0.03 
freq.     995.74  E(vib)   ...       0.02 
freq.    1004.62  E(vib)   ...       0.02 
freq.    1022.67  E(vib)   ...       0.02 
freq.    1027.32  E(vib)   ...       0.02 
freq.    1030.48  E(vib)   ...       0.02 
freq.    1122.43  E(vib)   ...       0.01 
freq.    1173.21  E(vib)   ...       0.01 
freq.    1192.05  E(vib)   ...       0.01 
freq.    1350.42  E(vib)   ...       0.01 
freq.    1368.42  E(vib)   ...       0.01 
freq.    1385.79  E(vib)   ...       0.00 
freq.    1397.41  E(vib)   ...       0.00 
freq.    1500.50  E(vib)   ...       0.00 
freq.    1523.80  E(vib)   ...       0.00 
freq.    1566.31  E(vib)   ...       0.00 
freq.    1630.85  E(vib)   ...       0.00 
freq.    1666.42  E(vib)   ...       0.00 
freq.    2033.64  E(vib)   ...       0.00 
freq.    3189.77  E(vib)   ...       0.00 
freq.    3190.79  E(vib)   ...       0.00 
freq.    3203.17  E(vib)   ...       0.00 
freq.    3209.81  E(vib)   ...       0.00 
freq.    3218.40  E(vib)   ...       0.00 
freq.    3567.81  E(vib)   ...       0.00 
freq.    3689.68  E(vib)   ...       0.00 

------------
INNER ENERGY
------------

The inner energy is: U= E(el) + E(ZPE) + E(vib) + E(rot) + E(trans)
    E(el)   - is the total energy from the electronic structure calculation
              = E(kin-el) + E(nuc-el) + E(el-el) + E(nuc-nuc)
    E(ZPE)  - the the zero temperature vibrational energy from the frequency calculation
    E(vib)  - the the finite temperature correction to E(ZPE) due to population
              of excited vibrational states
    E(rot)  - is the rotational thermal energy
    E(trans)- is the translational thermal energy

Summary of contributions to the inner energy U:
Electronic energy                ...   -491.77489442 Eh
Zero point energy                ...      0.12664740 Eh      79.47 kcal/mol
Thermal vibrational correction   ...      0.00675035 Eh       4.24 kcal/mol
Thermal rotational correction    ...      0.00141627 Eh       0.89 kcal/mol
Thermal translational correction ...      0.00141627 Eh       0.89 kcal/mol
-----------------------------------------------------------------------
Total thermal energy                   -491.63866412 Eh


Summary of corrections to the electronic energy:
(perhaps to be used in another calculation)
Total thermal correction                  0.00958289 Eh       6.01 kcal/mol
Non-thermal (ZPE) correction              0.12664740 Eh      79.47 kcal/mol
-----------------------------------------------------------------------
Total correction                          0.13623030 Eh      85.49 kcal/mol


--------
ENTHALPY
--------

The enthalpy is H = U + kB*T
                kB is Boltzmann's constant
Total free energy                 ...   -491.63866412 Eh 
Thermal Enthalpy correction       ...      0.00094421 Eh       0.59 kcal/mol
-----------------------------------------------------------------------
Total Enthalpy                    ...   -491.63771991 Eh


Note: Only C1 symmetry has been detected, increase convergence thresholds 
      if your molecule has a higher symmetry. Symmetry factor of 1.0 is   
      used for the rotational entropy correction. 
 

Note: Rotational entropy computed according to Herzberg 
Infrared and Raman Spectra, Chapter V,1, Van Nostrand Reinhold, 1945 
Point Group:  C1, Symmetry Number:   1  
Rotational constants in cm-1:     0.095735     0.001736     0.001718 

Vibrational entropy computed according to the QRRHO of S. Grimme
Chem.Eur.J. 2012 18 9955


-------
ENTROPY
-------

The entropy contributions are T*S = T*(S(el)+S(vib)+S(rot)+S(trans))
     S(el)   - electronic entropy
     S(vib)  - vibrational entropy
     S(rot)  - rotational entropy
     S(trans)- translational entropy
The entropies will be listed as multiplied by the temperature to get
units of energy

Electronic entropy                ...      0.00000000 Eh      0.00 kcal/mol
Vibrational entropy               ...      0.01492002 Eh      9.36 kcal/mol
Rotational entropy                ...      0.01662480 Eh     10.43 kcal/mol
Translational entropy             ...      0.01933899 Eh     12.14 kcal/mol
-----------------------------------------------------------------------
Final entropy term                ...      0.05088381 Eh     31.93 kcal/mol

In case the symmetry of your molecule has not been determined correctly
or in case you have a reason to use a different symmetry number we print 
out the resulting rotational entropy values for sn=1,12 :
 --------------------------------------------------------
|  sn= 1 | S(rot)=       0.01662480 Eh     10.43 kcal/mol|
|  sn= 2 | S(rot)=       0.01597035 Eh     10.02 kcal/mol|
|  sn= 3 | S(rot)=       0.01558751 Eh      9.78 kcal/mol|
|  sn= 4 | S(rot)=       0.01531589 Eh      9.61 kcal/mol|
|  sn= 5 | S(rot)=       0.01510520 Eh      9.48 kcal/mol|
|  sn= 6 | S(rot)=       0.01493306 Eh      9.37 kcal/mol|
|  sn= 7 | S(rot)=       0.01478751 Eh      9.28 kcal/mol|
|  sn= 8 | S(rot)=       0.01466143 Eh      9.20 kcal/mol|
|  sn= 9 | S(rot)=       0.01455022 Eh      9.13 kcal/mol|
|  sn=10 | S(rot)=       0.01445075 Eh      9.07 kcal/mol|
|  sn=11 | S(rot)=       0.01436076 Eh      9.01 kcal/mol|
|  sn=12 | S(rot)=       0.01427860 Eh      8.96 kcal/mol|
 --------------------------------------------------------


-------------------
GIBBS FREE ENERGY
-------------------

The Gibbs free energy is G = H - T*S

Total enthalpy                    ...   -491.63771991 Eh 
Total entropy correction          ...     -0.05088381 Eh    -31.93 kcal/mol
-----------------------------------------------------------------------
Final Gibbs free energy         ...   -491.68860372 Eh

For completeness - the Gibbs free energy minus the electronic energy
G-E(el)                           ...      0.08629069 Eh     54.15 kcal/mol


Timings for individual modules:

Sum of individual times         ...    29378.085 sec (= 489.635 min)
GTO integral calculation        ...       91.040 sec (=   1.517 min)   0.3 %
SCF iterations                  ...    23321.310 sec (= 388.688 min)  79.4 %
SCF Gradient evaluation         ...     5013.987 sec (=  83.566 min)  17.1 %
Geometry relaxation             ...       24.306 sec (=   0.405 min)   0.1 %
Analytical frequency calculation...      927.442 sec (=  15.457 min)   3.2 %
                             ****ORCA TERMINATED NORMALLY****
TOTAL RUN TIME: 0 days 8 hours 11 minutes 39 seconds 252 msec
