
                                 *****************
                                 * O   R   C   A *
                                 *****************

                                            #,                                       
                                            ###                                      
                                            ####                                     
                                            #####                                    
                                            ######                                   
                                           ########,                                 
                                     ,,################,,,,,                         
                               ,,#################################,,                 
                          ,,##########################################,,             
                       ,#########################################, ''#####,          
                    ,#############################################,,   '####,        
                  ,##################################################,,,,####,       
                ,###########''''           ''''###############################       
              ,#####''   ,,,,##########,,,,          '''####'''          '####       
            ,##' ,,,,###########################,,,                        '##       
           ' ,,###''''                  '''############,,,                           
         ,,##''                                '''############,,,,        ,,,,,,###''
      ,#''                                            '''#######################'''  
     '                                                          ''''####''''         
             ,#######,   #######,   ,#######,      ##                                
            ,#'     '#,  ##    ##  ,#'     '#,    #''#        ######   ,####,        
            ##       ##  ##   ,#'  ##            #'  '#       #        #'  '#        
            ##       ##  #######   ##           ,######,      #####,   #    #        
            '#,     ,#'  ##    ##  '#,     ,#' ,#      #,         ##   #,  ,#        
             '#######'   ##     ##  '#######'  #'      '#     #####' # '####'        



                  #######################################################
                  #                        -***-                        #
                  #          Department of theory and spectroscopy      #
                  #    Directorship and core code : Frank Neese         #
                  #        Max Planck Institute fuer Kohlenforschung    #
                  #                Kaiser Wilhelm Platz 1               #
                  #                 D-45470 Muelheim/Ruhr               #
                  #                      Germany                        #
                  #                                                     #
                  #                  All rights reserved                #
                  #                        -***-                        #
                  #######################################################



                         Program Version 5.0.4 -  RELEASE  -

 With contributions from (in alphabetic order):
   Daniel Aravena         : Magnetic Suceptibility
   Michael Atanasov       : Ab Initio Ligand Field Theory (pilot matlab implementation)
   Alexander A. Auer      : GIAO ZORA, VPT2 properties, NMR spectrum
   Ute Becker             : Parallelization
   Giovanni Bistoni       : ED, misc. LED, open-shell LED, HFLD
   Martin Brehm           : Molecular dynamics
   Dmytro Bykov           : SCF Hessian
   Vijay G. Chilkuri      : MRCI spin determinant printing, contributions to CSF-ICE
   Dipayan Datta          : RHF DLPNO-CCSD density
   Achintya Kumar Dutta   : EOM-CC, STEOM-CC
   Dmitry Ganyushin       : Spin-Orbit,Spin-Spin,Magnetic field MRCI
   Miquel Garcia          : C-PCM and meta-GGA Hessian, CC/C-PCM, Gaussian charge scheme
   Yang Guo               : DLPNO-NEVPT2, F12-NEVPT2, CIM, IAO-localization
   Andreas Hansen         : Spin unrestricted coupled pair/coupled cluster methods
   Benjamin Helmich-Paris : MC-RPA, TRAH-SCF, COSX integrals
   Lee Huntington         : MR-EOM, pCC
   Robert Izsak           : Overlap fitted RIJCOSX, COSX-SCS-MP3, EOM
   Marcus Kettner         : VPT2
   Christian Kollmar      : KDIIS, OOCD, Brueckner-CCSD(T), CCSD density, CASPT2, CASPT2-K
   Simone Kossmann        : Meta GGA functionals, TD-DFT gradient, OOMP2, MP2 Hessian
   Martin Krupicka        : Initial AUTO-CI
   Lucas Lang             : DCDCAS
   Marvin Lechner         : AUTO-CI (C++ implementation), FIC-MRCC
   Dagmar Lenk            : GEPOL surface, SMD
   Dimitrios Liakos       : Extrapolation schemes; Compound Job, initial MDCI parallelization
   Dimitrios Manganas     : Further ROCIS development; embedding schemes
   Dimitrios Pantazis     : SARC Basis sets
   Anastasios Papadopoulos: AUTO-CI, single reference methods and gradients
   Taras Petrenko         : DFT Hessian,TD-DFT gradient, ASA, ECA, R-Raman, ABS, FL, XAS/XES, NRVS
   Peter Pinski           : DLPNO-MP2, DLPNO-MP2 Gradient
   Christoph Reimann      : Effective Core Potentials
   Marius Retegan         : Local ZFS, SOC
   Christoph Riplinger    : Optimizer, TS searches, QM/MM, DLPNO-CCSD(T), (RO)-DLPNO pert. Triples
   Tobias Risthaus        : Range-separated hybrids, TD-DFT gradient, RPA, STAB
   Michael Roemelt        : Original ROCIS implementation
   Masaaki Saitow         : Open-shell DLPNO-CCSD energy and density
   Barbara Sandhoefer     : DKH picture change effects
   Avijit Sen             : IP-ROCIS
   Kantharuban Sivalingam : CASSCF convergence, NEVPT2, FIC-MRCI
   Bernardo de Souza      : ESD, SOC TD-DFT
   Georgi Stoychev        : AutoAux, RI-MP2 NMR, DLPNO-MP2 response
   Willem Van den Heuvel  : Paramagnetic NMR
   Boris Wezisla          : Elementary symmetry handling
   Frank Wennmohs         : Technical directorship


 We gratefully acknowledge several colleagues who have allowed us to
 interface, adapt or use parts of their codes:
   Stefan Grimme, W. Hujo, H. Kruse, P. Pracht,  : VdW corrections, initial TS optimization,
                  C. Bannwarth, S. Ehlert          DFT functionals, gCP, sTDA/sTD-DF
   Ed Valeev, F. Pavosevic, A. Kumar             : LibInt (2-el integral package), F12 methods
   Garnet Chan, S. Sharma, J. Yang, R. Olivares  : DMRG
   Ulf Ekstrom                                   : XCFun DFT Library
   Mihaly Kallay                                 : mrcc  (arbitrary order and MRCC methods)
   Jiri Pittner, Ondrej Demel                    : Mk-CCSD
   Frank Weinhold                                : gennbo (NPA and NBO analysis)
   Christopher J. Cramer and Donald G. Truhlar   : smd solvation model
   Lars Goerigk                                  : TD-DFT with DH, B97 family of functionals
   V. Asgeirsson, H. Jonsson                     : NEB implementation
   FAccTs GmbH                                   : IRC, NEB, NEB-TS, DLPNO-Multilevel, CI-OPT
                                                   MM, QMMM, 2- and 3-layer-ONIOM, Crystal-QMMM,
                                                   LR-CPCM, SF, NACMEs, symmetry and pop. for TD-DFT,
                                                   nearIR, NL-DFT gradient (VV10), updates on ESD,
                                                   ML-optimized integration grids
   S Lehtola, MJT Oliveira, MAL Marques          : LibXC Library
   Liviu Ungur et al                             : ANISO software


 Your calculation uses the libint2 library for the computation of 2-el integrals
 For citations please refer to: http://libint.valeyev.net

 Your ORCA version has been built with support for libXC version: 5.1.0
 For citations please refer to: https://tddft.org/programs/libxc/

 This ORCA versions uses:
   CBLAS   interface :  Fast vector & matrix operations
   LAPACKE interface :  Fast linear algebra routines
   Shared memory     :  Shared parallel matrices


================================================================================

----- Orbital basis set information -----
Your calculation utilizes the basis: def2-TZVP
   F. Weigend and R. Ahlrichs, Phys. Chem. Chem. Phys. 7, 3297 (2005).

----- AuxJ basis set information -----
Your calculation utilizes the auxiliary basis: def2/J
   F. Weigend, Phys. Chem. Chem. Phys. 8, 1057 (2006).

================================================================================
                                        WARNINGS
                       Please study these warnings very carefully!
================================================================================

INFO   : Checking CIS options ...

WARNING: CIS/ROCIS methods need fully converged wavefunctions
  ===> : Setting SCFConvForced true
         You can overwrite this default with %scf ConvForced false 


INFO   : the flag for use of the SHARK integral package has been found!

================================================================================
                                       INPUT FILE
================================================================================
NAME = Fe_O2_Porphyrin_UVis.inp
|  1> !B3LYP DEF2-TZVP
|  2> %TDDFT
|  3>    NROOTS   60
|  4> END
|  5> * xyz 0 1
|  6>   C   4.03468957538736      1.56442831999463      0.14605264887596
|  7>   C   4.40467915375032      0.34230380287928     -0.31206515762839
|  8>   C   3.21191832427875     -0.46430347705779     -0.35053853064268
|  9>   C   2.61398834910173      1.50807200215447      0.37736242107912
| 10>   N   2.13665543187650      0.26628085990779      0.06833683420085
| 11>   C   1.85444004691544      2.57174712540732      0.83013997532915
| 12>   C   0.48286348614281      2.55519734050404      1.01413786409784
| 13>   N   -0.33973122532128      1.48419930668780      0.80731453303736
| 14>   C   -1.60875551090310      1.91830492016743      1.07486105180944
| 15>   C   -0.28881119968833      3.69762484572997      1.42879360180365
| 16>   C   -1.58719639358901      3.30416763665150      1.45869576758073
| 17>   C   -2.74957569559983      1.13881951796548      1.02655746905031
| 18>   C   -2.76743336055386     -0.21034315757653      0.72538510111885
| 19>   N   -1.67131691471211     -0.96631836512873      0.41261183682505
| 20>   C   -3.54805270162800     -2.29495016658771      0.44522528429897
| 21>   C   -3.94754275034497     -1.03236863918222      0.74143959636684
| 22>   C   0.00556097213477     -3.30275384342058     -0.38295718360802
| 23>   N   0.80231773779736     -2.19542844534406     -0.31753369640902
| 24>   C   2.05423981698959     -2.60138785279481     -0.68151125860914
| 25>   C   2.04856645605033     -4.00853072424638     -0.98975209338922
| 26>   C   0.77873602243214     -4.44535118498249     -0.79756000721999
| 27>   C   3.18089782240954     -1.79854962278788     -0.71596612928469
| 28>   C   -1.35154437920995     -3.33508931356301     -0.11703073493290
| 29>   C   -2.12452270491662     -2.24278036262104      0.23574143663109
| 30>   H   4.64876948683338      2.43598914067250      0.31269487037219
| 31>   H   5.38699945889793     -0.00260706405039     -0.59592013249149
| 32>   H   2.37097262637494      3.50009117946761      1.03568492863093
| 33>   H   0.12670873123358      4.66787101811008      1.65348741950424
| 34>   H   -2.46069424556025      3.88180445142854      1.71879202052702
| 35>   H   -3.69220104539999      1.61305317269657      1.26508181249307
| 36>   H   -4.14645277678395     -3.18910421468592      0.36255974671932
| 37>   H   -4.94158610546113     -0.67299702549120      0.95834763925967
| 38>   H   2.91436087792160     -4.57018723197257     -1.30510747200303
| 39>   H   0.38128982484580     -5.44035967591480     -0.92596877228316
| 40>   H   4.11190143313810     -2.25562307850253     -1.02399328513344
| 41>   H   -1.85503622767641     -4.28789122183237     -0.21473394791366
| 42>   Fe  0.20930359086404     -0.33437605283525      0.20354532321545
| 43>   N   1.87430167130891      0.57237120319756      6.49609755588874
| 44>   C   0.43261910824070      0.37389342708538      6.48035413015368
| 45>   C   -0.15233387571031      0.39767139523524      7.88048177825678
| 46>   O   0.66963429455881     -0.12692954907271      8.80194348571061
| 47>   O   -1.26427658718715      0.79493438350342      8.13942623220865
| 48>   C   -0.06272844014669     -0.93409073867043      5.79250145943780
| 49>   H   -1.15152491242319     -0.97232696559841      5.85324076707072
| 50>   H   0.33147798281949     -1.79317780493349      6.34207575456983
| 51>   C   0.34781305145789     -1.01194164798270      4.36637958453564
| 52>   N   1.53910836608377     -1.56870719155667      3.94873901673141
| 53>   C   1.63000262556769     -1.44080399701433      2.61269140458880
| 54>   H   2.46221447193251     -1.80014161499478      2.03455961917359
| 55>   N   0.56199449693739     -0.82428686272080      2.14365783697455
| 56>   C   -0.24533043408574     -0.55214172955910      3.22458400360494
| 57>   H   -1.19072640081023     -0.05199289173542      3.11780461152661
| 58>   H   2.22451235139260     -2.01405408284603      4.53963883562323
| 59>   H   2.21749006759623      0.68909562166987      5.54955546250004
| 60>   H   2.35025305982047     -0.22889905214106      6.89723633832271
| 61>   H   -0.01933114857670      1.21470815154761      5.95354495735044
| 62>   H   0.21825118225968     -0.11749408723074      9.66355194058207
| 63>   O   -1.03812424035781      0.67346814996495     -1.93061744931116
| 64>   O   -0.01565267870556      0.05381196400587     -1.48893810677811
| 65> **                         ****END OF INPUT****
================================================================================

                       ****************************
                       * Single Point Calculation *
                       ****************************

---------------------------------
CARTESIAN COORDINATES (ANGSTROEM)
---------------------------------
  C      4.034690    1.564428    0.146053
  C      4.404679    0.342304   -0.312065
  C      3.211918   -0.464303   -0.350539
  C      2.613988    1.508072    0.377362
  N      2.136655    0.266281    0.068337
  C      1.854440    2.571747    0.830140
  C      0.482863    2.555197    1.014138
  N     -0.339731    1.484199    0.807315
  C     -1.608756    1.918305    1.074861
  C     -0.288811    3.697625    1.428794
  C     -1.587196    3.304168    1.458696
  C     -2.749576    1.138820    1.026557
  C     -2.767433   -0.210343    0.725385
  N     -1.671317   -0.966318    0.412612
  C     -3.548053   -2.294950    0.445225
  C     -3.947543   -1.032369    0.741440
  C      0.005561   -3.302754   -0.382957
  N      0.802318   -2.195428   -0.317534
  C      2.054240   -2.601388   -0.681511
  C      2.048566   -4.008531   -0.989752
  C      0.778736   -4.445351   -0.797560
  C      3.180898   -1.798550   -0.715966
  C     -1.351544   -3.335089   -0.117031
  C     -2.124523   -2.242780    0.235741
  H      4.648769    2.435989    0.312695
  H      5.386999   -0.002607   -0.595920
  H      2.370973    3.500091    1.035685
  H      0.126709    4.667871    1.653487
  H     -2.460694    3.881804    1.718792
  H     -3.692201    1.613053    1.265082
  H     -4.146453   -3.189104    0.362560
  H     -4.941586   -0.672997    0.958348
  H      2.914361   -4.570187   -1.305107
  H      0.381290   -5.440360   -0.925969
  H      4.111901   -2.255623   -1.023993
  H     -1.855036   -4.287891   -0.214734
  Fe     0.209304   -0.334376    0.203545
  N      1.874302    0.572371    6.496098
  C      0.432619    0.373893    6.480354
  C     -0.152334    0.397671    7.880482
  O      0.669634   -0.126930    8.801943
  O     -1.264277    0.794934    8.139426
  C     -0.062728   -0.934091    5.792501
  H     -1.151525   -0.972327    5.853241
  H      0.331478   -1.793178    6.342076
  C      0.347813   -1.011942    4.366380
  N      1.539108   -1.568707    3.948739
  C      1.630003   -1.440804    2.612691
  H      2.462214   -1.800142    2.034560
  N      0.561994   -0.824287    2.143658
  C     -0.245330   -0.552142    3.224584
  H     -1.190726   -0.051993    3.117805
  H      2.224512   -2.014054    4.539639
  H      2.217490    0.689096    5.549555
  H      2.350253   -0.228899    6.897236
  H     -0.019331    1.214708    5.953545
  H      0.218251   -0.117494    9.663552
  O     -1.038124    0.673468   -1.930617
  O     -0.015653    0.053812   -1.488938

----------------------------
CARTESIAN COORDINATES (A.U.)
----------------------------
  NO LB      ZA    FRAG     MASS         X           Y           Z
   0 C     6.0000    0    12.011    7.624458    2.956341    0.276000
   1 C     6.0000    0    12.011    8.323637    0.646860   -0.589718
   2 C     6.0000    0    12.011    6.069646   -0.877406   -0.662422
   3 C     6.0000    0    12.011    4.939722    2.849843    0.713112
   4 N     7.0000    0    14.007    4.037694    0.503198    0.129138
   5 C     6.0000    0    12.011    3.504384    4.859898    1.568737
   6 C     6.0000    0    12.011    0.912480    4.828623    1.916443
   7 N     7.0000    0    14.007   -0.641999    2.804730    1.525603
   8 C     6.0000    0    12.011   -3.040107    3.625071    2.031193
   9 C     6.0000    0    12.011   -0.545774    6.987498    2.700029
  10 C     6.0000    0    12.011   -2.999367    6.243972    2.756536
  11 C     6.0000    0    12.011   -5.195945    2.152057    1.939912
  12 C     6.0000    0    12.011   -5.229691   -0.397491    1.370779
  13 N     7.0000    0    14.007   -3.158331   -1.826077    0.779723
  14 C     6.0000    0    12.011   -6.704848   -4.336827    0.841354
  15 C     6.0000    0    12.011   -7.459775   -1.950894    1.401118
  16 C     6.0000    0    12.011    0.010509   -6.241300   -0.723684
  17 N     7.0000    0    14.007    1.516161   -4.148759   -0.600052
  18 C     6.0000    0    12.011    3.881951   -4.915911   -1.287870
  19 C     6.0000    0    12.011    3.871230   -7.575025   -1.870360
  20 C     6.0000    0    12.011    1.471598   -8.400496   -1.507170
  21 C     6.0000    0    12.011    6.011026   -3.398766   -1.352980
  22 C     6.0000    0    12.011   -2.554049   -6.302405   -0.221156
  23 C     6.0000    0    12.011   -4.014766   -4.238241    0.445487
  24 H     1.0000    0     1.008    8.784901    4.603352    0.590908
  25 H     1.0000    0     1.008   10.179954   -0.004927   -1.126126
  26 H     1.0000    0     1.008    4.480489    6.614214    1.957161
  27 H     1.0000    0     1.008    0.239445    8.820998    3.124638
  28 H     1.0000    0     1.008   -4.650038    7.335547    3.248046
  29 H     1.0000    0     1.008   -6.977249    3.048229    2.390658
  30 H     1.0000    0     1.008   -7.835660   -6.026534    0.685139
  31 H     1.0000    0     1.008   -9.338244   -1.271780    1.811015
  32 H     1.0000    0     1.008    5.507344   -8.636402   -2.466296
  33 H     1.0000    0     1.008    0.720533  -10.280790   -1.749827
  34 H     1.0000    0     1.008    7.770368   -4.262510   -1.935067
  35 H     1.0000    0     1.008   -3.505510   -8.102940   -0.405788
  36 Fe   26.0000    0    55.850    0.395526   -0.631879    0.384645
  37 N     7.0000    0    14.007    3.541917    1.081625   12.275845
  38 C     6.0000    0    12.011    0.817532    0.706556   12.246095
  39 C     6.0000    0    12.011   -0.287869    0.751490   14.891952
  40 O     8.0000    0    15.999    1.265425   -0.239862   16.633263
  41 O     8.0000    0    15.999   -2.389137    1.502208   15.381286
  42 C     6.0000    0    12.011   -0.118540   -1.765176   10.946241
  43 H     1.0000    0     1.008   -2.176067   -1.837432   11.061022
  44 H     1.0000    0     1.008    0.626403   -3.388615   11.984786
  45 C     6.0000    0    12.011    0.657271   -1.912293    8.251262
  46 N     7.0000    0    14.007    2.908493   -2.964427    7.462035
  47 C     6.0000    0    12.011    3.080259   -2.722725    4.937271
  48 H     1.0000    0     1.008    4.652911   -3.401775    3.844760
  49 N     7.0000    0    14.007    1.062016   -1.557676    4.050926
  50 C     6.0000    0    12.011   -0.463607   -1.043397    6.093581
  51 H     1.0000    0     1.008   -2.250147   -0.098252    5.891797
  52 H     1.0000    0     1.008    4.203719   -3.806011    8.578674
  53 H     1.0000    0     1.008    4.190449    1.302202   10.487140
  54 H     1.0000    0     1.008    4.441335   -0.432557   13.033888
  55 H     1.0000    0     1.008   -0.036531    2.295466   11.250569
  56 H     1.0000    0     1.008    0.412435   -0.222032   18.261467
  57 O     8.0000    0    15.999   -1.961771    1.272670   -3.648338
  58 O     8.0000    0    15.999   -0.029579    0.101690   -2.813685

--------------------------------
INTERNAL COORDINATES (ANGSTROEM)
--------------------------------
 C      0   0   0     0.000000000000     0.00000000     0.00000000
 C      1   0   0     1.356595941343     0.00000000     0.00000000
 C      2   1   0     1.440407546773   106.71756249     0.00000000
 C      1   2   3     1.440511096676   106.73611916   359.54791454
 N      4   1   2     1.365792359099   110.11612940     0.27896649
 C      4   1   2     1.383230242878   124.33549910   181.07222313
 C      6   4   1     1.383962203426   125.34659271   177.56865184
 N      7   6   4     1.366189861636   125.87138007     1.45648766
 C      8   7   6     1.367644493557   106.27496819   181.53540921
 C      7   6   4     1.439639470931   124.05760472   182.96893845
 C     10   7   6     1.357021306625   106.80536249   178.21766718
 C      9   8   7     1.382534419884   125.44135657   181.95082128
 C     12   9   8     1.382484580919   124.64496949     1.44164109
 N     13  12   9     1.367770774704   125.36962087   358.95212524
 C     13  12   9     2.243533476603   159.79535202   172.70346439
 C     15  13  12     1.356999385056    37.87614712     5.74812868
 C     14  13  12     2.983920283434   160.75191742   182.91305894
 N     17  14  13     1.365749286484    71.35061418   173.49694527
 C     18  17  14     1.365500493831   106.32277294   181.58585979
 C     19  18  17     1.440519232752   110.11067630     0.13774986
 C     20  19  18     1.356546808277   106.73340717   359.59375039
 C      3   2   1     1.383731324637   124.44234989   182.58479289
 C     17  14  13     1.383292229929    54.24752975   353.16957303
 C     14  13  12     1.366028498159   106.27208014   177.83154907
 H      1   2   3     1.079111686420   128.64937315   179.92590226
 H      2   1   3     1.079115533567   128.68514437   180.42485024
 H      6   4   1     1.082070846193   117.37351676   359.07181803
 H     10   7   6     1.079130093976   124.54544279   358.78558692
 H     11  10   7     1.079033293268   128.65558924   180.19039988
 H     12   9   8     1.081819750134   117.65431175   179.86659719
 H     15  13  12     1.079086513112   166.51692215     5.90943571
 H     16  15  13     1.079036258728   128.67920219   180.32410841
 H     20  19  18     1.079123268415   124.59608325   179.88565468
 H     21  20  19     1.079117318899   128.66862483   180.01517032
 H     22   3   2     1.081926335685   117.59704510   357.92039847
 H     23  17  14     1.082072749727   117.36902045   179.34064678
 Fe     8   7   6     1.993286940302   126.52891784     0.52570615
 N      7   6   4     5.993294734647    84.00021533    88.44459959
 C     38   7   6     1.455365897539    78.76937464   189.68748726
 C     39  38   7     1.517594417552   111.69752154   205.69818552
 O     40  39  38     1.341614513192   113.04092051   325.62601878
 O     40  39  38     1.208836922702   123.87135922   148.53302467
 C     39  38   7     1.558631793649   115.72426270    82.50383570
 H     43  39  38     1.091159489068   108.78160084   179.45832997
 H     43  39  38     1.093371481793   108.84203810    62.35454710
 C     43  39  38     1.486078289487   112.31373966   300.33513087
 N     46  43  39     1.379708679771   123.37811879    89.17960367
 C     47  46  43     1.345230171938   108.69972404   182.18311018
 H     48  47  46     1.075144847094   123.68159117   180.44187549
 N     48  47  46     1.319366221808   110.04793094     0.29329770
 C     46  43  39     1.366357313465   131.63481414   272.31256852
 H     51  46  43     1.074860099012   128.41990397   357.23428835
 H     47  46  43     1.008600551569   125.98684016     3.20229084
 H     38   7   6     1.013580189117    35.54335639   340.85027910
 H     38   7   6     1.014631001443   137.03750856   298.78715659
 H     39  38   7     1.090301031853   108.10008540   321.81542503
 H     41  40  39     0.972730626389   108.67948532   182.58707877
 O     37   8   7     2.669546191933    76.64416267   251.82119998
 O     58  37   8     1.274559737637    33.33799182   133.27877341

---------------------------
INTERNAL COORDINATES (A.U.)
---------------------------
 C      0   0   0     0.000000000000     0.00000000     0.00000000
 C      1   0   0     2.563594803527     0.00000000     0.00000000
 C      2   1   0     2.721975784634   106.71756249     0.00000000
 C      1   2   3     2.722171465592   106.73611916   359.54791454
 N      4   1   2     2.580973514500   110.11612940     0.27896649
 C      4   1   2     2.613926339198   124.33549910   181.07222313
 C      6   4   1     2.615309544174   125.34659271   177.56865184
 N      7   6   4     2.581724685432   125.87138007     1.45648766
 C      8   7   6     2.584473541389   106.27496819   181.53540921
 C      7   6   4     2.720524331642   124.05760472   182.96893845
 C     10   7   6     2.564398627417   106.80536249   178.21766718
 C      9   8   7     2.612611424301   125.44135657   181.95082128
 C     12   9   8     2.612517242306   124.64496949     1.44164109
 N     13  12   9     2.584712178173   125.36962087   358.95212524
 C     13  12   9     4.239663843064   159.79535202   172.70346439
 C     15  13  12     2.564357201656    37.87614712     5.74812868
 C     14  13  12     5.638792141143   160.75191742   182.91305894
 N     17  14  13     2.580892119053    71.35061418   173.49694527
 C     18  17  14     2.580421969074   106.32277294   181.58585979
 C     19  18  17     2.722186840547   110.11067630     0.13774986
 C     20  19  18     2.563501955489   106.73340717   359.59375039
 C      3   2   1     2.614873246492   124.44234989   182.58479289
 C     17  14  13     2.614043477748    54.24752975   353.16957303
 C     14  13  12     2.581419752652   106.27208014   177.83154907
 H      1   2   3     2.039225555247   128.64937315   179.92590226
 H      2   1   3     2.039232825302   128.68514437   180.42485024
 H      6   4   1     2.044817556804   117.37351676   359.07181803
 H     10   7   6     2.039260340487   124.54544279   358.78558692
 H     11  10   7     2.039077413660   128.65558924   180.19039988
 H     12   9   8     2.044343054021   117.65431175   179.86659719
 H     15  13  12     2.039177984590   166.51692215     5.90943571
 H     16  15  13     2.039083017566   128.67920219   180.32410841
 H     20  19  18     2.039247442047   124.59608325   179.88565468
 H     21  20  19     2.039236199091   128.66862483   180.01517032
 H     22   3   2     2.044544471522   117.59704510   357.92039847
 H     23  17  14     2.044821153962   117.36902045   179.34064678
 Fe     8   7   6     3.766766423492   126.52891784     0.52570615
 N      7   6   4    11.325685688355    84.00021533    88.44459959
 C     38   7   6     2.750242970997    78.76937464   189.68748726
 C     39  38   7     2.867837831541   111.69752154   205.69818552
 O     40  39  38     2.535284007227   113.04092051   325.62601878
 O     40  39  38     2.284370724478   123.87135922   148.53302467
 C     39  38   7     2.945387233618   115.72426270    82.50383570
 H     43  39  38     2.061992602768   108.78160084   179.45832997
 H     43  39  38     2.066172663228   108.84203810    62.35454710
 C     43  39  38     2.808280980696   112.31373966   300.33513087
 N     46  43  39     2.607271549362   123.37811879    89.17960367
 C     47  46  43     2.542116612051   108.69972404   182.18311018
 H     48  47  46     2.031729315305   123.68159117   180.44187549
 N     48  47  46     2.493240829563   110.04793094     0.29329770
 C     46  43  39     2.582041123528   131.63481414   272.31256852
 H     51  46  43     2.031191219412   128.41990397   357.23428835
 H     47  46  43     1.905978820987   125.98684016     3.20229084
 H     38   7   6     1.915388972199    35.54335639   340.85027910
 H     38   7   6     1.917374719713   137.03750856   298.78715659
 H     39  38   7     2.060370353734   108.10008540   321.81542503
 H     41  40  39     1.838194485953   108.67948532   182.58707877
 O     37   8   7     5.044711204606    76.64416267   251.82119998
 O     58  37   8     2.408568845457    33.33799182   133.27877341

---------------------
BASIS SET INFORMATION
---------------------
There are 5 groups of distinct atoms

 Group   1 Type C   : 11s6p2d1f contracted to 5s3p2d1f pattern {62111/411/11/1}
 Group   2 Type N   : 11s6p2d1f contracted to 5s3p2d1f pattern {62111/411/11/1}
 Group   3 Type H   : 5s1p contracted to 3s1p pattern {311/1}
 Group   4 Type Fe  : 17s11p7d1f contracted to 6s4p4d1f pattern {842111/6311/4111/1}
 Group   5 Type O   : 11s6p2d1f contracted to 5s3p2d1f pattern {62111/411/11/1}

Atom   0C    basis set group =>   1
Atom   1C    basis set group =>   1
Atom   2C    basis set group =>   1
Atom   3C    basis set group =>   1
Atom   4N    basis set group =>   2
Atom   5C    basis set group =>   1
Atom   6C    basis set group =>   1
Atom   7N    basis set group =>   2
Atom   8C    basis set group =>   1
Atom   9C    basis set group =>   1
Atom  10C    basis set group =>   1
Atom  11C    basis set group =>   1
Atom  12C    basis set group =>   1
Atom  13N    basis set group =>   2
Atom  14C    basis set group =>   1
Atom  15C    basis set group =>   1
Atom  16C    basis set group =>   1
Atom  17N    basis set group =>   2
Atom  18C    basis set group =>   1
Atom  19C    basis set group =>   1
Atom  20C    basis set group =>   1
Atom  21C    basis set group =>   1
Atom  22C    basis set group =>   1
Atom  23C    basis set group =>   1
Atom  24H    basis set group =>   3
Atom  25H    basis set group =>   3
Atom  26H    basis set group =>   3
Atom  27H    basis set group =>   3
Atom  28H    basis set group =>   3
Atom  29H    basis set group =>   3
Atom  30H    basis set group =>   3
Atom  31H    basis set group =>   3
Atom  32H    basis set group =>   3
Atom  33H    basis set group =>   3
Atom  34H    basis set group =>   3
Atom  35H    basis set group =>   3
Atom  36Fe   basis set group =>   4
Atom  37N    basis set group =>   2
Atom  38C    basis set group =>   1
Atom  39C    basis set group =>   1
Atom  40O    basis set group =>   5
Atom  41O    basis set group =>   5
Atom  42C    basis set group =>   1
Atom  43H    basis set group =>   3
Atom  44H    basis set group =>   3
Atom  45C    basis set group =>   1
Atom  46N    basis set group =>   2
Atom  47C    basis set group =>   1
Atom  48H    basis set group =>   3
Atom  49N    basis set group =>   2
Atom  50C    basis set group =>   1
Atom  51H    basis set group =>   3
Atom  52H    basis set group =>   3
Atom  53H    basis set group =>   3
Atom  54H    basis set group =>   3
Atom  55H    basis set group =>   3
Atom  56H    basis set group =>   3
Atom  57O    basis set group =>   5
Atom  58O    basis set group =>   5
---------------------------------
AUXILIARY/J BASIS SET INFORMATION
---------------------------------
There are 5 groups of distinct atoms

 Group   1 Type C   : 12s5p4d2f1g contracted to 6s4p3d1f1g pattern {711111/2111/211/2/1}
 Group   2 Type N   : 12s5p4d2f1g contracted to 6s4p3d1f1g pattern {711111/2111/211/2/1}
 Group   3 Type H   : 5s2p1d contracted to 3s1p1d pattern {311/2/1}
 Group   4 Type Fe  : 19s5p5d3f3g contracted to 8s5p5d2f3g pattern {121111111/11111/11111/21/111}
 Group   5 Type O   : 12s5p4d2f1g contracted to 6s4p3d1f1g pattern {711111/2111/211/2/1}

Atom   0C    basis set group =>   1
Atom   1C    basis set group =>   1
Atom   2C    basis set group =>   1
Atom   3C    basis set group =>   1
Atom   4N    basis set group =>   2
Atom   5C    basis set group =>   1
Atom   6C    basis set group =>   1
Atom   7N    basis set group =>   2
Atom   8C    basis set group =>   1
Atom   9C    basis set group =>   1
Atom  10C    basis set group =>   1
Atom  11C    basis set group =>   1
Atom  12C    basis set group =>   1
Atom  13N    basis set group =>   2
Atom  14C    basis set group =>   1
Atom  15C    basis set group =>   1
Atom  16C    basis set group =>   1
Atom  17N    basis set group =>   2
Atom  18C    basis set group =>   1
Atom  19C    basis set group =>   1
Atom  20C    basis set group =>   1
Atom  21C    basis set group =>   1
Atom  22C    basis set group =>   1
Atom  23C    basis set group =>   1
Atom  24H    basis set group =>   3
Atom  25H    basis set group =>   3
Atom  26H    basis set group =>   3
Atom  27H    basis set group =>   3
Atom  28H    basis set group =>   3
Atom  29H    basis set group =>   3
Atom  30H    basis set group =>   3
Atom  31H    basis set group =>   3
Atom  32H    basis set group =>   3
Atom  33H    basis set group =>   3
Atom  34H    basis set group =>   3
Atom  35H    basis set group =>   3
Atom  36Fe   basis set group =>   4
Atom  37N    basis set group =>   2
Atom  38C    basis set group =>   1
Atom  39C    basis set group =>   1
Atom  40O    basis set group =>   5
Atom  41O    basis set group =>   5
Atom  42C    basis set group =>   1
Atom  43H    basis set group =>   3
Atom  44H    basis set group =>   3
Atom  45C    basis set group =>   1
Atom  46N    basis set group =>   2
Atom  47C    basis set group =>   1
Atom  48H    basis set group =>   3
Atom  49N    basis set group =>   2
Atom  50C    basis set group =>   1
Atom  51H    basis set group =>   3
Atom  52H    basis set group =>   3
Atom  53H    basis set group =>   3
Atom  54H    basis set group =>   3
Atom  55H    basis set group =>   3
Atom  56H    basis set group =>   3
Atom  57O    basis set group =>   5
Atom  58O    basis set group =>   5
------------------------------------------------------------------------------
                           ORCA GTO INTEGRAL CALCULATION
                           -- RI-GTO INTEGRALS CHOSEN --
------------------------------------------------------------------------------
------------------------------------------------------------------------------
                   ___                                                        
                  /   \      - P O W E R E D   B Y -                         
                 /     \                                                     
                 |  |  |   _    _      __       _____    __    __             
                 |  |  |  | |  | |    /  \     |  _  \  |  |  /  |          
                  \  \/   | |  | |   /    \    | | | |  |  | /  /          
                 / \  \   | |__| |  /  /\  \   | |_| |  |  |/  /          
                |  |  |   |  __  | /  /__\  \  |    /   |      \           
                |  |  |   | |  | | |   __   |  |    \   |  |\   \          
                \     /   | |  | | |  |  |  |  | |\  \  |  | \   \       
                 \___/    |_|  |_| |__|  |__|  |_| \__\ |__|  \__/        
                                                                              
                      - O R C A' S   B I G   F R I E N D -                    
                                      &                                       
                       - I N T E G R A L  F E E D E R -                       
                                                                              
 v1 FN, 2020, v2 2021                                                         
------------------------------------------------------------------------------


Reading SHARK input file Fe_O2_Porphyrin_UVis.SHARKINP.tmp ... ok
----------------------
SHARK INTEGRAL PACKAGE
----------------------

Number of atoms                             ...     59
Number of basis functions                   ...   1318
Number of shells                            ...    506
Maximum angular momentum                    ...      3
Integral batch strategy                     ... SHARK/LIBINT Hybrid
RI-J (if used) integral strategy            ... SPLIT-RIJ (Revised 2003 algorithm where possible)
Printlevel                                  ...      1
Contraction scheme used                     ... SEGMENTED contraction
Coulomb Range Separation                    ... NOT USED
Exchange Range Separation                   ... NOT USED
Finite Nucleus Model                        ... NOT USED
Auxiliary Coulomb fitting basis             ... AVAILABLE
   # of basis functions in Aux-J            ...   2133
   # of shells in Aux-J                     ...    683
   Maximum angular momentum in Aux-J        ...      4
Auxiliary J/K fitting basis                 ... NOT available
Auxiliary Correlation fitting basis         ... NOT available
Auxiliary 'external' fitting basis          ... NOT available
Integral threshold                          ...     1.000000e-10
Primitive cut-off                           ...     1.000000e-11
Primitive pair pre-selection threshold      ...     1.000000e-11

Calculating pre-screening integrals         ... done (  1.6 sec) Dimension = 506
Organizing shell pair data                  ... done (  2.2 sec)
Shell pair information
Total number of shell pairs                 ...    128271
Shell pairs after pre-screening             ...     78241
Total number of primitive shell pairs       ...    408189
Primitive shell pairs kept                  ...    154057
          la=0 lb=0:  18808 shell pairs
          la=1 lb=0:  22410 shell pairs
          la=1 lb=1:   6676 shell pairs
          la=2 lb=0:  11378 shell pairs
          la=2 lb=1:   7015 shell pairs
          la=2 lb=2:   1894 shell pairs
          la=3 lb=0:   4963 shell pairs
          la=3 lb=1:   3160 shell pairs
          la=3 lb=2:   1593 shell pairs
          la=3 lb=3:    344 shell pairs

Calculating one electron integrals          ... done (  1.4 sec)
Calculating RI/J V-Matrix + Cholesky decomp.... done (  0.7 sec)
Calculating Nuclear repulsion               ... done (  0.0 sec) ENN=   5104.187279598532 Eh

SHARK setup successfully completed in   9.1 seconds

Maximum memory used throughout the entire GTOINT-calculation: 1023.6 MB
-------------------------------------------------------------------------------
                                 ORCA SCF
-------------------------------------------------------------------------------

------------
SCF SETTINGS
------------
Hamiltonian:
 Density Functional     Method          .... DFT(GTOs)
 Exchange Functional    Exchange        .... B88
   X-Alpha parameter    XAlpha          ....  0.666667
   Becke's b parameter  XBeta           ....  0.004200
 Correlation Functional Correlation     .... LYP
 LDA part of GGA corr.  LDAOpt          .... VWN-5
 Gradients option       PostSCFGGA      .... off
 Hybrid DFT is turned on
   Fraction HF Exchange ScalHFX         ....  0.200000
   Scaling of DF-GGA-X  ScalDFX         ....  0.720000
   Scaling of DF-GGA-C  ScalDFC         ....  0.810000
   Scaling of DF-LDA-C  ScalLDAC        ....  1.000000
   Perturbative correction              ....  0.000000
   Density functional embedding theory  .... OFF
   NL short-range parameter             ....  4.800000
 RI-approximation to the Coulomb term is turned on
   Number of AuxJ basis functions       .... 2133
   RIJ-COSX (HFX calculated with COS-X)).... on


General Settings:
 Integral files         IntName         .... Fe_O2_Porphyrin_UVis
 Hartree-Fock type      HFTyp           .... RHF
 Total Charge           Charge          ....    0
 Multiplicity           Mult            ....    1
 Number of Electrons    NEL             ....  284
 Basis Dimension        Dim             .... 1318
 Nuclear Repulsion      ENuc            ....   5104.1872795985 Eh

Convergence Acceleration:
 DIIS                   CNVDIIS         .... on
   Start iteration      DIISMaxIt       ....    12
   Startup error        DIISStart       ....  0.200000
   # of expansion vecs  DIISMaxEq       ....     5
   Bias factor          DIISBfac        ....   1.050
   Max. coefficient     DIISMaxC        ....  10.000
 Trust-Rad. Augm. Hess. CNVTRAH         .... auto
   Auto Start mean grad. ratio tolernc. ....  1.125000
   Auto Start start iteration           ....    20
   Auto Start num. interpolation iter.  ....    10
   Max. Number of Micro iterations      ....    16
   Max. Number of Macro iterations      .... Maxiter - #DIIS iter
   Number of Davidson start vectors     ....     2
   Converg. threshold I  (grad. norm)   ....   5.000e-05
   Converg. threshold II (energy diff.) ....   1.000e-06
   Grad. Scal. Fac. for Micro threshold ....   0.100
   Minimum threshold for Micro iter.    ....   0.010
   NR start threshold (gradient norm)   ....   0.001
   Initial trust radius                 ....   0.400
   Minimum AH scaling param. (alpha)    ....   1.000
   Maximum AH scaling param. (alpha)    .... 1000.000
   Orbital update algorithm             .... Taylor
   White noise on init. David. guess    .... on
   Maximum white noise                  ....   0.010
   Quad. conv. algorithm                .... NR
 SOSCF                  CNVSOSCF        .... off
 Level Shifting         CNVShift        .... on
   Level shift para.    LevelShift      ....    0.2500
   Turn off err/grad.   ShiftErr        ....    0.0010
 Zerner damping         CNVZerner       .... off
 Static damping         CNVDamp         .... on
   Fraction old density DampFac         ....    0.7000
   Max. Damping (<1)    DampMax         ....    0.9800
   Min. Damping (>=0)   DampMin         ....    0.0000
   Turn off err/grad.   DampErr         ....    0.1000
 Fernandez-Rico         CNVRico         .... off

SCF Procedure:
 Maximum # iterations   MaxIter         ....   125
 SCF integral mode      SCFMode         .... Direct
   Integral package                     .... SHARK and LIBINT hybrid scheme
 Reset frequency        DirectResetFreq ....    20
 Integral Threshold     Thresh          ....  1.000e-10 Eh
 Primitive CutOff       TCut            ....  1.000e-11 Eh

Convergence Tolerance:
 Convergence Check Mode ConvCheckMode   .... Total+1el-Energy
 Convergence forced     ConvForced      .... 1
 Energy Change          TolE            ....  1.000e-06 Eh
 1-El. energy change                    ....  1.000e-03 Eh
 DIIS Error             TolErr          ....  1.000e-06


Diagonalization of the overlap matrix:
Smallest eigenvalue                        ... 8.693e-06
Time for diagonalization                   ...    0.855 sec
Threshold for overlap eigenvalues          ... 1.000e-08
Number of eigenvalues below threshold      ... 0
Time for construction of square roots      ...    0.408 sec
Total time needed                          ...    1.267 sec

Time for model grid setup =    7.732 sec

------------------------------
INITIAL GUESS: MODEL POTENTIAL
------------------------------
Loading Hartree-Fock densities                     ... done
Calculating cut-offs                               ... done
Initializing the effective Hamiltonian             ... done
Setting up the integral package (SHARK)            ... done
Starting the Coulomb interaction                   ... done (  20.4 sec)
Reading the grid                                   ... done
Mapping shells                                     ... done
Starting the XC term evaluation                    ... done (   8.6 sec)
  promolecular density results
     # of electrons  =    283.991033860
     EX              =   -273.465420783
     EC              =    -10.169590784
     EX+EC           =   -283.635011567
Transforming the Hamiltonian                       ... done (   0.3 sec)
Diagonalizing the Hamiltonian                      ... done (   0.7 sec)
Back transforming the eigenvectors                 ... done (   0.1 sec)
Now organizing SCF variables                       ... done
                      ------------------
                      INITIAL GUESS DONE (  38.0 sec)
                      ------------------
-------------------
DFT GRID GENERATION
-------------------

General Integration Accuracy     IntAcc      ... 4.388
Radial Grid Type                 RadialGrid  ... OptM3 with GC (2021)
Angular Grid (max. ang.)         AngularGrid ... 4 (Lebedev-302)
Angular grid pruning method      GridPruning ... 4 (adaptive)
Weight generation scheme         WeightScheme... Becke
Basis function cutoff            BFCut       ... 1.0000e-10
Integration weight cutoff        WCut        ... 1.0000e-14
Angular grids for H and He will be reduced by one unit
Partially contracted basis set               ... off
Rotationally invariant grid construction     ... off

Total number of grid points                  ...   296794
Total number of batches                      ...     4669
Average number of points per batch           ...       63
Average number of grid points per atom       ...     5030
Time for grid setup =   18.131 sec

--------------------
COSX GRID GENERATION
--------------------

GRIDX 1
-------
General Integration Accuracy     IntAcc      ... 3.816
Radial Grid Type                 RadialGrid  ... OptM3 with GC (2021)
Angular Grid (max. ang.)         AngularGrid ... 1 (Lebedev-50)
Angular grid pruning method      GridPruning ... 4 (adaptive)
Weight generation scheme         WeightScheme... Becke
Basis function cutoff            BFCut       ... 1.0000e-10
Integration weight cutoff        WCut        ... 1.0000e-14
Angular grids for H and He will be reduced by one unit
Partially contracted basis set               ... on
Rotationally invariant grid construction     ... off

Total number of grid points                  ...    37395
Total number of batches                      ...      607
Average number of points per batch           ...       61
Average number of grid points per atom       ...      634
UseSFitting                                  ... on

GRIDX 2
-------
General Integration Accuracy     IntAcc      ... 4.020
Radial Grid Type                 RadialGrid  ... OptM3 with GC (2021)
Angular Grid (max. ang.)         AngularGrid ... 2 (Lebedev-110)
Angular grid pruning method      GridPruning ... 4 (adaptive)
Weight generation scheme         WeightScheme... Becke
Basis function cutoff            BFCut       ... 1.0000e-10
Integration weight cutoff        WCut        ... 1.0000e-14
Angular grids for H and He will be reduced by one unit
Partially contracted basis set               ... on
Rotationally invariant grid construction     ... off

Total number of grid points                  ...    81656
Total number of batches                      ...     1305
Average number of points per batch           ...       62
Average number of grid points per atom       ...     1384
UseSFitting                                  ... on

GRIDX 3
-------
General Integration Accuracy     IntAcc      ... 4.338
Radial Grid Type                 RadialGrid  ... OptM3 with GC (2021)
Angular Grid (max. ang.)         AngularGrid ... 3 (Lebedev-194)
Angular grid pruning method      GridPruning ... 4 (adaptive)
Weight generation scheme         WeightScheme... Becke
Basis function cutoff            BFCut       ... 1.0000e-10
Integration weight cutoff        WCut        ... 1.0000e-14
Angular grids for H and He will be reduced by one unit
Partially contracted basis set               ... on
Rotationally invariant grid construction     ... off

Total number of grid points                  ...   178120
Total number of batches                      ...     2818
Average number of points per batch           ...       63
Average number of grid points per atom       ...     3019
UseSFitting                                  ... on

Time for X-Grid setup             =   56.173 sec

--------------
SCF ITERATIONS
--------------
ITER       Energy         Delta-E        Max-DP      RMS-DP      [F,P]     Damp
               ***  Starting incremental Fock matrix formation  ***
  0  -2949.6459047251   0.000000000000 0.29755667  0.00100296  0.3919214 0.7000
  1  -2950.0870037389  -0.441099013809 0.16374723  0.00070365  0.2423936 0.7000
                               ***Turning on DIIS***
  2  -2950.3695237042  -0.282519965281 0.18031498  0.00092746  0.0403808 0.0000
  3  -2950.7615041925  -0.391980488255 0.04649757  0.00020093  0.1202035 0.7000
  4  -2950.8154267330  -0.053922540545 0.16142021  0.00059138  0.0566146 0.0000
  5  -2950.8418019068  -0.026375173775 0.03576342  0.00017012  0.0920589 0.0000
  6  -2950.8720636331  -0.030261726332 0.01190221  0.00007352  0.0313412 0.0000
  7  -2950.8761409996  -0.004077366507 0.01121433  0.00005185  0.0147954 0.0000
  8  -2950.8774665456  -0.001325545965 0.00664794  0.00003268  0.0090142 0.0000
  9  -2950.8780550514  -0.000588505807 0.00387131  0.00002274  0.0042852 0.0000
 10  -2950.8783148671  -0.000259815736 0.00439895  0.00001899  0.0058497 0.0000
 11  -2950.8785106906  -0.000195823440 0.00387413  0.00001636  0.0030178 0.0000
 12  -2950.8786132985  -0.000102607906 0.00332213  0.00001651  0.0025707 0.0000
 13  -2950.8786440867  -0.000030788240 0.00134430  0.00000656  0.0035776 0.0000
 14  -2950.8786836496  -0.000039562915 0.00097905  0.00000491  0.0010444 0.0000
 15  -2950.8786924114  -0.000008761779 0.00102929  0.00000543  0.0013460 0.0000
               *** Restarting incremental Fock matrix formation ***
                                   *** Resetting DIIS ***
 16  -2950.8787532233  -0.000060811871 0.00507617  0.00005302  0.0006226 0.0000
 17  -2950.8787352771   0.000017946169 0.00088814  0.00000271  0.0031628 0.0000
 18  -2950.8787552244  -0.000019947284 0.00040329  0.00000189  0.0010101 0.0000
 19  -2950.8787588996  -0.000003675245 0.00126359  0.00000544  0.0002153 0.0000
 20  -2950.8787584613   0.000000438379 0.00045875  0.00000113  0.0008686 0.0000
 21  -2950.8787595518  -0.000001090509 0.00171692  0.00000415  0.0005903 0.0000
 22  -2950.8787603262  -0.000000774403 0.00150526  0.00000412  0.0002593 0.0000
 23  -2950.8787605808  -0.000000254650 0.00046593  0.00000254  0.0000458 0.0000
 24  -2950.8787602099   0.000000370882 0.00115502  0.00000243  0.0001542 0.0000
 25  -2950.8787603235  -0.000000113535 0.00030553  0.00000149  0.0000412 0.0000
                 **** Energy Check signals convergence ****

               *****************************************************
               *                     SUCCESS                       *
               *           SCF CONVERGED AFTER  26 CYCLES          *
               *****************************************************

Old exchange energy                            =    -55.126083544 Eh
New exchange energy                            =    -55.126112091 Eh
Exchange energy change after final integration =     -0.000028546 Eh
Total energy after final integration           =  -2950.878788743 Eh
Final COS-X integration done in                =  1162.283 sec

----------------
TOTAL SCF ENERGY
----------------

Total Energy       :        -2950.87878874 Eh          -80297.49409 eV

Components:
Nuclear Repulsion  :         5104.18727960 Eh          138891.99701 eV
Electronic Energy  :        -8055.06606834 Eh         -219189.49110 eV
One Electron Energy:       -14212.11819646 Eh         -386731.39717 eV
Two Electron Energy:         6157.05212812 Eh          167541.90607 eV
Max COSX asymmetry :            0.00000261 Eh               0.00007 eV

Virial components:
Potential Energy   :        -5892.82999434 Eh         -160352.05629 eV
Kinetic Energy     :         2941.95120560 Eh           80054.56220 eV
Virial Ratio       :            2.00303458


DFT components:
N(Alpha)           :      141.999879380912 electrons
N(Beta)            :      141.999879380912 electrons
N(Total)           :      283.999758761823 electrons
E(X)               :     -219.663085555315 Eh       
E(C)               :      -11.933547240132 Eh       
E(XC)              :     -231.596632795447 Eh       
DFET-embed. en.    :        0.000000000000 Eh       

---------------
SCF CONVERGENCE
---------------

  Last Energy change         ...    1.2695e-07  Tolerance :   1.0000e-06
  Last MAX-Density change    ...    0.0000e+00  Tolerance :   1.0000e-05
  Last RMS-Density change    ...    0.0000e+00  Tolerance :   1.0000e-06
  Last DIIS Error            ...    1.9603e-05  Tolerance :   1.0000e-06

             **** THE GBW FILE WAS UPDATED (Fe_O2_Porphyrin_UVis.gbw) ****
             **** DENSITY Fe_O2_Porphyrin_UVis.scfp WAS UPDATED ****
             **** ENERGY FILE WAS UPDATED (Fe_O2_Porphyrin_UVis.en.tmp) ****
             **** THE GBW FILE WAS UPDATED (Fe_O2_Porphyrin_UVis.gbw) ****
             **** DENSITY Fe_O2_Porphyrin_UVis.scfp WAS UPDATED ****
----------------
ORBITAL ENERGIES
----------------

  NO   OCC          E(Eh)            E(eV) 
   0   2.0000    -256.075406     -6968.1661 
   1   2.0000     -30.028400      -817.1143 
   2   2.0000     -25.894910      -704.6363 
   3   2.0000     -25.891760      -704.5506 
   4   2.0000     -25.881781      -704.2791 
   5   2.0000     -19.222875      -523.0810 
   6   2.0000     -19.193279      -522.2757 
   7   2.0000     -19.159594      -521.3591 
   8   2.0000     -19.128649      -520.5170 
   9   2.0000     -14.400735      -391.8639 
  10   2.0000     -14.343222      -390.2989 
  11   2.0000     -14.321301      -389.7024 
  12   2.0000     -14.310933      -389.4203 
  13   2.0000     -14.310831      -389.4175 
  14   2.0000     -14.310770      -389.4159 
  15   2.0000     -14.310736      -389.4149 
  16   2.0000     -10.318273      -280.7745 
  17   2.0000     -10.252468      -278.9838 
  18   2.0000     -10.237194      -278.5682 
  19   2.0000     -10.229845      -278.3682 
  20   2.0000     -10.210772      -277.8492 
  21   2.0000     -10.205840      -277.7150 
  22   2.0000     -10.199562      -277.5442 
  23   2.0000     -10.199447      -277.5411 
  24   2.0000     -10.198816      -277.5239 
  25   2.0000     -10.198809      -277.5237 
  26   2.0000     -10.198771      -277.5227 
  27   2.0000     -10.198605      -277.5182 
  28   2.0000     -10.198539      -277.5163 
  29   2.0000     -10.198388      -277.5122 
  30   2.0000     -10.174071      -276.8505 
  31   2.0000     -10.173058      -276.8230 
  32   2.0000     -10.172815      -276.8164 
  33   2.0000     -10.172488      -276.8075 
  34   2.0000     -10.168320      -276.6941 
  35   2.0000     -10.167960      -276.6843 
  36   2.0000     -10.167543      -276.6729 
  37   2.0000     -10.167187      -276.6632 
  38   2.0000     -10.167157      -276.6624 
  39   2.0000     -10.167079      -276.6603 
  40   2.0000     -10.166255      -276.6379 
  41   2.0000     -10.166188      -276.6360 
  42   2.0000      -3.435273       -93.4785 
  43   2.0000      -2.215696       -60.2921 
  44   2.0000      -2.207742       -60.0757 
  45   2.0000      -2.192473       -59.6602 
  46   2.0000      -1.158469       -31.5235 
  47   2.0000      -1.128301       -30.7026 
  48   2.0000      -1.052837       -28.6492 
  49   2.0000      -1.034639       -28.1539 
  50   2.0000      -0.962817       -26.1996 
  51   2.0000      -0.953360       -25.9422 
  52   2.0000      -0.952860       -25.9286 
  53   2.0000      -0.943447       -25.6725 
  54   2.0000      -0.922111       -25.0919 
  55   2.0000      -0.906770       -24.6745 
  56   2.0000      -0.814311       -22.1585 
  57   2.0000      -0.813408       -22.1340 
  58   2.0000      -0.787536       -21.4299 
  59   2.0000      -0.786436       -21.4000 
  60   2.0000      -0.772976       -21.0337 
  61   2.0000      -0.764808       -20.8115 
  62   2.0000      -0.763003       -20.7624 
  63   2.0000      -0.762000       -20.7351 
  64   2.0000      -0.759770       -20.6744 
  65   2.0000      -0.755449       -20.5568 
  66   2.0000      -0.737831       -20.0774 
  67   2.0000      -0.711031       -19.3481 
  68   2.0000      -0.697903       -18.9909 
  69   2.0000      -0.651340       -17.7239 
  70   2.0000      -0.650401       -17.6983 
  71   2.0000      -0.650283       -17.6951 
  72   2.0000      -0.631603       -17.1868 
  73   2.0000      -0.618349       -16.8261 
  74   2.0000      -0.592917       -16.1341 
  75   2.0000      -0.573237       -15.5986 
  76   2.0000      -0.572452       -15.5772 
  77   2.0000      -0.569169       -15.4879 
  78   2.0000      -0.568345       -15.4654 
  79   2.0000      -0.566915       -15.4265 
  80   2.0000      -0.544369       -14.8130 
  81   2.0000      -0.538842       -14.6626 
  82   2.0000      -0.530853       -14.4452 
  83   2.0000      -0.519251       -14.1295 
  84   2.0000      -0.519006       -14.1229 
  85   2.0000      -0.510570       -13.8933 
  86   2.0000      -0.510180       -13.8827 
  87   2.0000      -0.493547       -13.4301 
  88   2.0000      -0.492904       -13.4126 
  89   2.0000      -0.492710       -13.4073 
  90   2.0000      -0.490107       -13.3365 
  91   2.0000      -0.481900       -13.1132 
  92   2.0000      -0.480528       -13.0758 
  93   2.0000      -0.471364       -12.8265 
  94   2.0000      -0.452486       -12.3128 
  95   2.0000      -0.449387       -12.2284 
  96   2.0000      -0.447769       -12.1844 
  97   2.0000      -0.446027       -12.1370 
  98   2.0000      -0.444536       -12.0964 
  99   2.0000      -0.437740       -11.9115 
 100   2.0000      -0.433442       -11.7946 
 101   2.0000      -0.430876       -11.7247 
 102   2.0000      -0.421750       -11.4764 
 103   2.0000      -0.421388       -11.4665 
 104   2.0000      -0.420944       -11.4545 
 105   2.0000      -0.418654       -11.3921 
 106   2.0000      -0.407531       -11.0895 
 107   2.0000      -0.406834       -11.0705 
 108   2.0000      -0.405983       -11.0474 
 109   2.0000      -0.403166       -10.9707 
 110   2.0000      -0.392068       -10.6687 
 111   2.0000      -0.390399       -10.6233 
 112   2.0000      -0.390193       -10.6177 
 113   2.0000      -0.388934       -10.5834 
 114   2.0000      -0.386460       -10.5161 
 115   2.0000      -0.376745       -10.2517 
 116   2.0000      -0.375298       -10.2124 
 117   2.0000      -0.369929       -10.0663 
 118   2.0000      -0.369671       -10.0593 
 119   2.0000      -0.360420        -9.8075 
 120   2.0000      -0.353645        -9.6232 
 121   2.0000      -0.342067        -9.3081 
 122   2.0000      -0.332518        -9.0483 
 123   2.0000      -0.331279        -9.0146 
 124   2.0000      -0.323967        -8.8156 
 125   2.0000      -0.310722        -8.4552 
 126   2.0000      -0.303127        -8.2485 
 127   2.0000      -0.302168        -8.2224 
 128   2.0000      -0.280879        -7.6431 
 129   2.0000      -0.280292        -7.6271 
 130   2.0000      -0.275841        -7.5060 
 131   2.0000      -0.268546        -7.3075 
 132   2.0000      -0.260806        -7.0969 
 133   2.0000      -0.254904        -6.9363 
 134   2.0000      -0.251204        -6.8356 
 135   2.0000      -0.243782        -6.6336 
 136   2.0000      -0.239828        -6.5261 
 137   2.0000      -0.222775        -6.0620 
 138   2.0000      -0.216435        -5.8895 
 139   2.0000      -0.211304        -5.7499 
 140   2.0000      -0.193847        -5.2749 
 141   2.0000      -0.190636        -5.1875 
 142   0.0000      -0.113063        -3.0766 
 143   0.0000      -0.079432        -2.1615 
 144   0.0000      -0.078043        -2.1237 
 145   0.0000      -0.022467        -0.6114 
 146   0.0000      -0.021440        -0.5834 
 147   0.0000      -0.009489        -0.2582 
 148   0.0000      -0.007716        -0.2100 
 149   0.0000      -0.004557        -0.1240 
 150   0.0000      -0.000658        -0.0179 
 151   0.0000       0.016736         0.4554 
 152   0.0000       0.024346         0.6625 
 153   0.0000       0.037217         1.0127 
 154   0.0000       0.044690         1.2161 
 155   0.0000       0.048165         1.3106 
 156   0.0000       0.053157         1.4465 
 157   0.0000       0.057544         1.5658 
 158   0.0000       0.059918         1.6304 
 159   0.0000       0.060489         1.6460 
 160   0.0000       0.061085         1.6622 
 161   0.0000       0.062199         1.6925 
 162   0.0000       0.065582         1.7846 
 163   0.0000       0.071331         1.9410 
 164   0.0000       0.072202         1.9647 
 165   0.0000       0.081562         2.2194 
 166   0.0000       0.083206         2.2641 
 167   0.0000       0.085836         2.3357 
 168   0.0000       0.086303         2.3484 
 169   0.0000       0.088277         2.4021 
 170   0.0000       0.092791         2.5250 
 171   0.0000       0.096951         2.6382 
 172   0.0000       0.097422         2.6510 
 173   0.0000       0.104221         2.8360 
 174   0.0000       0.106584         2.9003 
 175   0.0000       0.111307         3.0288 
 176   0.0000       0.114600         3.1184 
 177   0.0000       0.117786         3.2051 
 178   0.0000       0.119419         3.2496 
 179   0.0000       0.122544         3.3346 
 180   0.0000       0.124171         3.3789 
 181   0.0000       0.126948         3.4544 
 182   0.0000       0.137072         3.7299 
 183   0.0000       0.140805         3.8315 
 184   0.0000       0.145015         3.9461 
 185   0.0000       0.150975         4.1082 
 186   0.0000       0.158715         4.3188 
 187   0.0000       0.166833         4.5397 
 188   0.0000       0.169404         4.6097 
 189   0.0000       0.177430         4.8281 
 190   0.0000       0.178390         4.8542 
 191   0.0000       0.179396         4.8816 
 192   0.0000       0.185521         5.0483 
 193   0.0000       0.188582         5.1316 
 194   0.0000       0.191318         5.2060 
 195   0.0000       0.198331         5.3969 
 196   0.0000       0.198718         5.4074 
 197   0.0000       0.205152         5.5825 
 198   0.0000       0.208321         5.6687 
 199   0.0000       0.211428         5.7533 
 200   0.0000       0.213616         5.8128 
 201   0.0000       0.217312         5.9134 
 202   0.0000       0.220014         5.9869 
 203   0.0000       0.224380         6.1057 
 204   0.0000       0.225393         6.1333 
 205   0.0000       0.226832         6.1724 
 206   0.0000       0.232577         6.3287 
 207   0.0000       0.233230         6.3465 
 208   0.0000       0.234421         6.3789 
 209   0.0000       0.240087         6.5331 
 210   0.0000       0.246811         6.7161 
 211   0.0000       0.247862         6.7447 
 212   0.0000       0.250412         6.8140 
 213   0.0000       0.253345         6.8939 
 214   0.0000       0.255282         6.9466 
 215   0.0000       0.258349         7.0300 
 216   0.0000       0.260684         7.0936 
 217   0.0000       0.264913         7.2086 
 218   0.0000       0.266958         7.2643 
 219   0.0000       0.270180         7.3520 
 220   0.0000       0.273032         7.4296 
 221   0.0000       0.277626         7.5546 
 222   0.0000       0.278690         7.5836 
 223   0.0000       0.281569         7.6619 
 224   0.0000       0.283250         7.7076 
 225   0.0000       0.286522         7.7966 
 226   0.0000       0.291523         7.9327 
 227   0.0000       0.295807         8.0493 
 228   0.0000       0.297709         8.1011 
 229   0.0000       0.301775         8.2117 
 230   0.0000       0.305721         8.3191 
 231   0.0000       0.306834         8.3494 
 232   0.0000       0.310161         8.4399 
 233   0.0000       0.313230         8.5234 
 234   0.0000       0.315875         8.5954 
 235   0.0000       0.317070         8.6279 
 236   0.0000       0.325028         8.8445 
 237   0.0000       0.326135         8.8746 
 238   0.0000       0.330329         8.9887 
 239   0.0000       0.335093         9.1183 
 240   0.0000       0.337378         9.1805 
 241   0.0000       0.340534         9.2664 
 242   0.0000       0.345558         9.4031 
 243   0.0000       0.347053         9.4438 
 244   0.0000       0.348696         9.4885 
 245   0.0000       0.351335         9.5603 
 246   0.0000       0.358658         9.7596 
 247   0.0000       0.360412         9.8073 
 248   0.0000       0.361616         9.8401 
 249   0.0000       0.362666         9.8686 
 250   0.0000       0.367525        10.0009 
 251   0.0000       0.368158        10.0181 
 252   0.0000       0.369756        10.0616 
 253   0.0000       0.370166        10.0727 
 254   0.0000       0.371375        10.1056 
 255   0.0000       0.375962        10.2304 
 256   0.0000       0.381542        10.3823 
 257   0.0000       0.382767        10.4156 
 258   0.0000       0.386311        10.5121 
 259   0.0000       0.388361        10.5678 
 260   0.0000       0.391156        10.6439 
 261   0.0000       0.393476        10.7070 
 262   0.0000       0.394574        10.7369 
 263   0.0000       0.397168        10.8075 
 264   0.0000       0.398475        10.8430 
 265   0.0000       0.401062        10.9134 
 266   0.0000       0.404379        11.0037 
 267   0.0000       0.405187        11.0257 
 268   0.0000       0.405456        11.0330 
 269   0.0000       0.407598        11.0913 
 270   0.0000       0.411201        11.1894 
 271   0.0000       0.411723        11.2035 
 272   0.0000       0.414169        11.2701 
 273   0.0000       0.417873        11.3709 
 274   0.0000       0.420633        11.4460 
 275   0.0000       0.422709        11.5025 
 276   0.0000       0.423507        11.5242 
 277   0.0000       0.430377        11.7111 
 278   0.0000       0.436158        11.8685 
 279   0.0000       0.438354        11.9282 
 280   0.0000       0.443572        12.0702 
 281   0.0000       0.447643        12.1810 
 282   0.0000       0.449697        12.2369 
 283   0.0000       0.451410        12.2835 
 284   0.0000       0.453852        12.3499 
 285   0.0000       0.455528        12.3956 
 286   0.0000       0.457572        12.4512 
 287   0.0000       0.461549        12.5594 
 288   0.0000       0.468049        12.7363 
 289   0.0000       0.469823        12.7845 
 290   0.0000       0.470613        12.8060 
 291   0.0000       0.474670        12.9164 
 292   0.0000       0.475280        12.9330 
 293   0.0000       0.480133        13.0651 
 294   0.0000       0.481796        13.1103 
 295   0.0000       0.487044        13.2531 
 296   0.0000       0.490131        13.3372 
 297   0.0000       0.491705        13.3800 
 298   0.0000       0.492526        13.4023 
 299   0.0000       0.493690        13.4340 
 300   0.0000       0.497454        13.5364 
 301   0.0000       0.498407        13.5623 
 302   0.0000       0.502104        13.6630 
 303   0.0000       0.505689        13.7605 
 304   0.0000       0.509213        13.8564 
 305   0.0000       0.510974        13.9043 
 306   0.0000       0.512116        13.9354 
 307   0.0000       0.515713        14.0333 
 308   0.0000       0.521714        14.1966 
 309   0.0000       0.523482        14.2447 
 310   0.0000       0.526243        14.3198 
 311   0.0000       0.535308        14.5665 
 312   0.0000       0.540293        14.7021 
 313   0.0000       0.548058        14.9134 
 314   0.0000       0.549119        14.9423 
 315   0.0000       0.550951        14.9921 
 316   0.0000       0.555597        15.1185 
 317   0.0000       0.560096        15.2410 
 318   0.0000       0.561736        15.2856 
 319   0.0000       0.565052        15.3758 
 320   0.0000       0.569943        15.5089 
 321   0.0000       0.571316        15.5463 
 322   0.0000       0.575019        15.6471 
 323   0.0000       0.577338        15.7102 
 324   0.0000       0.580781        15.8039 
 325   0.0000       0.585561        15.9339 
 326   0.0000       0.585745        15.9389 
 327   0.0000       0.597208        16.2508 
 328   0.0000       0.600513        16.3408 
 329   0.0000       0.601961        16.3802 
 330   0.0000       0.609655        16.5896 
 331   0.0000       0.612063        16.6551 
 332   0.0000       0.616981        16.7889 
 333   0.0000       0.621100        16.9010 
 334   0.0000       0.626505        17.0481 
 335   0.0000       0.629743        17.1362 
 336   0.0000       0.630567        17.1586 
 337   0.0000       0.635295        17.2872 
 338   0.0000       0.637577        17.3494 
 339   0.0000       0.643252        17.5038 
 340   0.0000       0.646881        17.6025 
 341   0.0000       0.655704        17.8426 
 342   0.0000       0.658260        17.9122 
 343   0.0000       0.659110        17.9353 
 344   0.0000       0.662710        18.0332 
 345   0.0000       0.664081        18.0706 
 346   0.0000       0.666459        18.1353 
 347   0.0000       0.668669        18.1954 
 348   0.0000       0.669424        18.2160 
 349   0.0000       0.671790        18.2803 
 350   0.0000       0.673701        18.3323 
 351   0.0000       0.675635        18.3850 
 352   0.0000       0.680207        18.5094 
 353   0.0000       0.681189        18.5361 
 354   0.0000       0.688203        18.7270 
 355   0.0000       0.695041        18.9130 
 356   0.0000       0.704679        19.1753 
 357   0.0000       0.709993        19.3199 
 358   0.0000       0.711891        19.3715 
 359   0.0000       0.716306        19.4917 
 360   0.0000       0.720344        19.6015 
 361   0.0000       0.723743        19.6940 
 362   0.0000       0.727053        19.7841 
 363   0.0000       0.728175        19.8147 
 364   0.0000       0.730128        19.8678 
 365   0.0000       0.735314        20.0089 
 366   0.0000       0.735806        20.0223 
 367   0.0000       0.737917        20.0798 
 368   0.0000       0.741707        20.1829 
 369   0.0000       0.749821        20.4037 
 370   0.0000       0.754035        20.5183 
 371   0.0000       0.756835        20.5945 
 372   0.0000       0.758969        20.6526 
 373   0.0000       0.766627        20.8610 
 374   0.0000       0.771644        20.9975 
 375   0.0000       0.775130        21.0923 
 376   0.0000       0.777627        21.1603 
 377   0.0000       0.782675        21.2977 
 378   0.0000       0.784451        21.3460 
 379   0.0000       0.790340        21.5062 
 380   0.0000       0.791379        21.5345 
 381   0.0000       0.797887        21.7116 
 382   0.0000       0.799379        21.7522 
 383   0.0000       0.805263        21.9123 
 384   0.0000       0.813502        22.1365 
 385   0.0000       0.814457        22.1625 
 386   0.0000       0.818366        22.2689 
 387   0.0000       0.828517        22.5451 
 388   0.0000       0.830307        22.5938 
 389   0.0000       0.833711        22.6864 
 390   0.0000       0.838632        22.8203 
 391   0.0000       0.841930        22.9101 
 392   0.0000       0.843515        22.9532 
 393   0.0000       0.846460        23.0334 
 394   0.0000       0.851597        23.1731 
 395   0.0000       0.856256        23.2999 
 396   0.0000       0.859121        23.3779 
 397   0.0000       0.865392        23.5485 
 398   0.0000       0.873634        23.7728 
 399   0.0000       0.877584        23.8803 
 400   0.0000       0.878447        23.9037 
 401   0.0000       0.883256        24.0346 
 402   0.0000       0.886011        24.1096 
 403   0.0000       0.887791        24.1580 
 404   0.0000       0.889805        24.2128 
 405   0.0000       0.895489        24.3675 
 406   0.0000       0.897464        24.4212 
 407   0.0000       0.898004        24.4359 
 408   0.0000       0.901628        24.5345 
 409   0.0000       0.906484        24.6667 
 410   0.0000       0.916560        24.9409 
 411   0.0000       0.917876        24.9767 
 412   0.0000       0.929530        25.2938 
 413   0.0000       0.932874        25.3848 
 414   0.0000       0.933409        25.3993 
 415   0.0000       0.946699        25.7610 
 416   0.0000       0.950680        25.8693 
 417   0.0000       0.954128        25.9631 
 418   0.0000       0.959908        26.1204 
 419   0.0000       0.966354        26.2958 
 420   0.0000       0.967389        26.3240 
 421   0.0000       0.970944        26.4207 
 422   0.0000       0.974719        26.5235 
 423   0.0000       0.976765        26.5791 
 424   0.0000       0.980108        26.6701 
 425   0.0000       0.982253        26.7285 
 426   0.0000       0.988301        26.8930 
 427   0.0000       0.992784        27.0150 
 428   0.0000       1.003593        27.3091 
 429   0.0000       1.006624        27.3916 
 430   0.0000       1.007394        27.4126 
 431   0.0000       1.013869        27.5888 
 432   0.0000       1.016724        27.6665 
 433   0.0000       1.018312        27.7097 
 434   0.0000       1.024409        27.8756 
 435   0.0000       1.033904        28.1340 
 436   0.0000       1.036954        28.2170 
 437   0.0000       1.046278        28.4707 
 438   0.0000       1.047524        28.5046 
 439   0.0000       1.051197        28.6045 
 440   0.0000       1.055126        28.7115 
 441   0.0000       1.063029        28.9265 
 442   0.0000       1.065036        28.9811 
 443   0.0000       1.071225        29.1495 
 444   0.0000       1.073143        29.2017 
 445   0.0000       1.077309        29.3151 
 446   0.0000       1.088930        29.6313 
 447   0.0000       1.093834        29.7647 
 448   0.0000       1.096666        29.8418 
 449   0.0000       1.101877        29.9836 
 450   0.0000       1.105897        30.0930 
 451   0.0000       1.108716        30.1697 
 452   0.0000       1.113127        30.2897 
 453   0.0000       1.119915        30.4744 
 454   0.0000       1.126501        30.6537 
 455   0.0000       1.129229        30.7279 
 456   0.0000       1.139372        31.0039 
 457   0.0000       1.143734        31.1226 
 458   0.0000       1.148196        31.2440 
 459   0.0000       1.155186        31.4342 
 460   0.0000       1.156884        31.4804 
 461   0.0000       1.163602        31.6632 
 462   0.0000       1.173750        31.9394 
 463   0.0000       1.175093        31.9759 
 464   0.0000       1.183458        32.2035 
 465   0.0000       1.191621        32.4257 
 466   0.0000       1.193637        32.4805 
 467   0.0000       1.196203        32.5503 
 468   0.0000       1.202293        32.7161 
 469   0.0000       1.203912        32.7601 
 470   0.0000       1.206983        32.8437 
 471   0.0000       1.213177        33.0122 
 472   0.0000       1.220995        33.2250 
 473   0.0000       1.234039        33.5799 
 474   0.0000       1.235986        33.6329 
 475   0.0000       1.239430        33.7266 
 476   0.0000       1.240552        33.7571 
 477   0.0000       1.241601        33.7857 
 478   0.0000       1.246598        33.9217 
 479   0.0000       1.250493        34.0276 
 480   0.0000       1.251883        34.0655 
 481   0.0000       1.258154        34.2361 
 482   0.0000       1.264379        34.4055 
 483   0.0000       1.268561        34.5193 
 484   0.0000       1.272383        34.6233 
 485   0.0000       1.277451        34.7612 
 486   0.0000       1.280584        34.8464 
 487   0.0000       1.282274        34.8924 
 488   0.0000       1.291054        35.1314 
 489   0.0000       1.291836        35.1526 
 490   0.0000       1.298113        35.3234 
 491   0.0000       1.303264        35.4636 
 492   0.0000       1.313651        35.7463 
 493   0.0000       1.321204        35.9518 
 494   0.0000       1.326353        36.0919 
 495   0.0000       1.333521        36.2870 
 496   0.0000       1.335996        36.3543 
 497   0.0000       1.343661        36.5629 
 498   0.0000       1.345004        36.5994 
 499   0.0000       1.352292        36.7977 
 500   0.0000       1.354793        36.8658 
 501   0.0000       1.371260        37.3139 
 502   0.0000       1.373070        37.3631 
 503   0.0000       1.377653        37.4878 
 504   0.0000       1.378266        37.5045 
 505   0.0000       1.382111        37.6091 
 506   0.0000       1.384542        37.6753 
 507   0.0000       1.386040        37.7161 
 508   0.0000       1.389298        37.8047 
 509   0.0000       1.391145        37.8550 
 510   0.0000       1.396878        38.0110 
 511   0.0000       1.404942        38.2304 
 512   0.0000       1.410087        38.3704 
 513   0.0000       1.416984        38.5581 
 514   0.0000       1.425281        38.7839 
 515   0.0000       1.433515        39.0079 
 516   0.0000       1.434509        39.0350 
 517   0.0000       1.440734        39.2044 
 518   0.0000       1.444375        39.3034 
 519   0.0000       1.447674        39.3932 
 520   0.0000       1.450541        39.4712 
 521   0.0000       1.452429        39.5226 
 522   0.0000       1.455217        39.5985 
 523   0.0000       1.458378        39.6845 
 524   0.0000       1.460530        39.7431 
 525   0.0000       1.463732        39.8302 
 526   0.0000       1.469093        39.9760 
 527   0.0000       1.471317        40.0366 
 528   0.0000       1.474709        40.1289 
 529   0.0000       1.477394        40.2019 
 530   0.0000       1.479162        40.2501 
 531   0.0000       1.489907        40.5424 
 532   0.0000       1.492140        40.6032 
 533   0.0000       1.493251        40.6334 
 534   0.0000       1.495531        40.6955 
 535   0.0000       1.500979        40.8437 
 536   0.0000       1.503374        40.9089 
 537   0.0000       1.506571        40.9959 
 538   0.0000       1.514065        41.1998 
 539   0.0000       1.520095        41.3639 
 540   0.0000       1.523170        41.4476 
 541   0.0000       1.526347        41.5340 
 542   0.0000       1.529868        41.6298 
 543   0.0000       1.533085        41.7174 
 544   0.0000       1.537366        41.8338 
 545   0.0000       1.544549        42.0293 
 546   0.0000       1.546436        42.0807 
 547   0.0000       1.549061        42.1521 
 548   0.0000       1.551490        42.2182 
 549   0.0000       1.556948        42.3667 
 550   0.0000       1.561421        42.4884 
 551   0.0000       1.565997        42.6129 
 552   0.0000       1.570598        42.7381 
 553   0.0000       1.572747        42.7966 
 554   0.0000       1.575969        42.8843 
 555   0.0000       1.576505        42.8989 
 556   0.0000       1.580869        43.0176 
 557   0.0000       1.586696        43.1762 
 558   0.0000       1.588000        43.2117 
 559   0.0000       1.594130        43.3785 
 560   0.0000       1.595555        43.4173 
 561   0.0000       1.596486        43.4426 
[...]
  26   30213.1    331.0   0.293077112   3.19347  -0.66114  -1.63275  -0.30080
  27   30777.1    324.9   0.144444474   1.54507   0.74764   0.98275   0.14254
  28   30803.9    324.6   0.019564525   0.20909   0.05928   0.44845   0.06686
  29   30830.1    324.4   0.056474821   0.60305  -0.66430   0.32842   0.23217
  30   30925.0    323.4   0.178319447   1.89830   0.60542   1.22025   0.20678
  31   31059.2    322.0   0.003638731   0.03857   0.06998  -0.02851   0.18127
  32   31732.8    315.1   0.199596802   2.07072  -0.68689  -1.24797  -0.20364
  33   31979.4    312.7   0.101857838   1.04858  -0.87176   0.45227   0.28995
  34   32209.2    310.5   0.001772228   0.01811  -0.05210  -0.06927  -0.10296
  35   32438.2    308.3   0.004677284   0.04747   0.11305   0.14527   0.11655
  36   32844.5    304.5   0.005224802   0.05237   0.03398   0.11734  -0.19351
  37   33003.0    303.0   0.021037878   0.20986   0.21355   0.39401   0.09490
  38   33298.7    300.3   0.008406146   0.08311   0.26262  -0.07926  -0.08864
  39   33505.1    298.5   0.002801065   0.02752   0.13468  -0.06876  -0.06824
  40   33613.6    297.5   0.000268881   0.00263   0.02630  -0.00701   0.04350
  41   33701.0    296.7   0.001148777   0.01122  -0.02053   0.05318  -0.08929
  42   34044.7    293.7   0.000814508   0.00788  -0.00119   0.00684   0.08848
  43   34275.4    291.8   0.000404650   0.00389  -0.05635   0.02667   0.00008
  44   34638.2    288.7   0.001004079   0.00954   0.08853  -0.02766  -0.03067
  45   34889.2    286.6   0.054789966   0.51699  -0.66551   0.23082   0.14424
  46   34931.9    286.3   0.045043417   0.42451  -0.22307   0.58117   0.19233
  47   35030.1    285.5   0.379469329   3.56624  -1.67058   0.71139   0.51896
  48   35151.7    284.5   0.001324477   0.01240   0.02116   0.10870   0.01184
  49   35252.5    283.7   0.263563763   2.46134  -0.80129  -1.33359  -0.20202
  50   35303.6    283.3   0.233712031   2.17941  -0.60773  -1.32379  -0.24012
  51   35832.9    279.1   0.003746050   0.03442  -0.07191  -0.16861  -0.02858
  52   36244.8    275.9   0.001152150   0.01046  -0.08484  -0.05087  -0.02606
  53   36352.9    275.1   0.007483044   0.06777   0.21416  -0.13969   0.04887
  54   36557.0    273.5   0.000482075   0.00434  -0.01723  -0.05957  -0.02227
  55   36668.8    272.7   0.084625492   0.75977  -0.74853   0.36322   0.25990
  56   36901.5    271.0   0.056523383   0.50427  -0.60155   0.28696   0.24508
  57   37159.0    269.1   0.001509809   0.01338  -0.03247  -0.00351   0.11095
  58   37804.0    264.5   0.002952096   0.02571   0.07672   0.11152   0.08595
  59   38008.4    263.1   0.005473098   0.04741   0.06741   0.20164   0.04693
  60   38086.4    262.6   0.236128204   2.04105  -0.70004  -1.23337  -0.17254

-----------------------------------------------------------------------------
         ABSORPTION SPECTRUM VIA TRANSITION VELOCITY DIPOLE MOMENTS
-----------------------------------------------------------------------------
State   Energy    Wavelength   fosc        P2         PX        PY        PZ  
        (cm-1)      (nm)                 (au**2)     (au)      (au)      (au) 
-----------------------------------------------------------------------------
   1    6389.6   1565.0   0.003902652   0.00017   0.00600   0.01146   0.00176
   2    9802.8   1020.1   0.003556501   0.00024   0.00731   0.01343   0.00212
   3   10398.0    961.7   0.003868046   0.00027  -0.00746  -0.01459  -0.00252
   4   11428.9    875.0   0.002003063   0.00016   0.00489   0.01122   0.00256
   5   11805.9    847.0   0.018091653   0.00146   0.03262  -0.01507  -0.01298
   6   20086.5    497.8   0.001580744   0.00022   0.01239  -0.00557  -0.00570
   7   20121.6    497.0   0.000003226   0.00000  -0.00024   0.00062   0.00005
   8   20792.1    481.0   0.047291173   0.00672  -0.02331   0.02426  -0.07476
   9   20881.7    478.9   0.000022060   0.00000  -0.00071  -0.00161   0.00020
  10   21652.4    461.8   0.103236338   0.01528   0.03030  -0.03380   0.11496
  11   22734.9    439.9   0.017298702   0.00269   0.02822  -0.02129   0.03792
  12   22868.3    437.3   0.000124313   0.00002  -0.00320  -0.00227  -0.00200
  13   23035.4    434.1   0.007820201   0.00123  -0.00949   0.01002  -0.03226
  14   23820.4    419.8   0.000026146   0.00000   0.00104   0.00172   0.00048
  15   23982.0    417.0   0.000535011   0.00009   0.00498   0.00787   0.00097
  16   24691.3    405.0   0.005275968   0.00089   0.01151   0.02753   0.00014
  17   24783.6    403.5   0.002268054   0.00038   0.00845  -0.00193  -0.01758
  18   25226.0    396.4   0.040950854   0.00706   0.03807  -0.02924   0.06896
  19   25334.3    394.7   0.006871227   0.00119  -0.00917   0.02139  -0.02546
  20   25922.5    385.8   0.000800998   0.00014   0.00457   0.01083  -0.00194
  21   26451.6    378.0   0.010852343   0.00196   0.01507  -0.00987   0.04046
  22   27638.4    361.8   0.003334804   0.00063   0.02170  -0.01163  -0.00487
  23   27873.2    358.8   0.002599183   0.00050  -0.01195  -0.01765  -0.00639
  24   27889.6    358.6   0.006120577   0.00117  -0.00433   0.01365  -0.03101
  25   30147.9    331.7   0.213272288   0.04394  -0.18411   0.08180   0.05794
  26   30213.1    331.0   0.086209756   0.01780  -0.04780  -0.12313  -0.01887
  27   30777.1    324.9   0.038564950   0.00811   0.05368   0.07199   0.00694
  28   30803.9    324.6   0.004924850   0.00104   0.00960   0.03042   0.00441
  29   30830.1    324.4   0.017735279   0.00374  -0.05275   0.02640   0.01605
  30   30925.0    323.4   0.042315645   0.00894   0.04030   0.08499   0.00981
  31   31059.2    322.0   0.013045757   0.00277   0.02952  -0.02178   0.03773
  32   31732.8    315.1   0.062843538   0.01363  -0.05618  -0.10172  -0.01122
  33   31979.4    312.7   0.041132001   0.00899  -0.07987   0.04083   0.03071
  34   32209.2    310.5   0.000809698   0.00018  -0.00098  -0.00699   0.01133
  35   32438.2    308.3   0.002844905   0.00063   0.01618   0.00717   0.01782
  36   32844.5    304.5   0.005511424   0.00124  -0.00537   0.02169  -0.02716
  37   33003.0    303.0   0.009559915   0.00216   0.02265   0.03953   0.00900
  38   33298.7    300.3   0.004695644   0.00107   0.03074  -0.01095  -0.00203
  39   33505.1    298.5   0.002368436   0.00054   0.02021  -0.01018   0.00548
  40   33613.6    297.5   0.000156765   0.00004   0.00530  -0.00282  -0.00003
  41   33701.0    296.7   0.001712969   0.00039  -0.00279   0.01412  -0.01369
  42   34044.7    293.7   0.002427584   0.00056  -0.01153   0.00605  -0.01988
  43   34275.4    291.8   0.000167511   0.00004  -0.00537   0.00314   0.00071
  44   34638.2    288.7   0.000323690   0.00008   0.00864  -0.00016  -0.00141
  45   34889.2    286.6   0.013427076   0.00320  -0.05076   0.02043   0.01442
  46   34931.9    286.3   0.007473371   0.00178  -0.02049   0.03525   0.01104
  47   35030.1    285.5   0.077695010   0.01860  -0.12171   0.05371   0.03008
  48   35151.7    284.5   0.000203255   0.00005   0.00247   0.00641   0.00130
  49   35252.5    283.7   0.045964091   0.01107  -0.05748  -0.08795  -0.00592
  50   35303.6    283.3   0.041057275   0.00991  -0.03613  -0.09134  -0.01608
  51   35832.9    279.1   0.002704299   0.00066  -0.01110  -0.02083  -0.01026
  52   36244.8    275.9   0.000160012   0.00004  -0.00564  -0.00218   0.00175
  53   36352.9    275.1   0.001850693   0.00046   0.01641  -0.00899  -0.01048
  54   36557.0    273.5   0.000067758   0.00002  -0.00166  -0.00345  -0.00151
  55   36668.8    272.7   0.011805156   0.00296  -0.04783   0.02374   0.01037
  56   36901.5    271.0   0.005228244   0.00132  -0.03242   0.01523   0.00596
  57   37159.0    269.1   0.000038647   0.00001  -0.00309  -0.00003  -0.00053
  58   37804.0    264.5   0.000702603   0.00018   0.00883   0.00994   0.00219
  59   38008.4    263.1   0.000477006   0.00012   0.00350   0.01055   0.00066
  60   38086.4    262.6   0.017759739   0.00462  -0.03293  -0.05916  -0.00619

-------------------------------------------------------------------
                             CD SPECTRUM
-------------------------------------------------------------------
State  Energy     Wavelength     R         MX        MY        MZ   
       (cm-1)       (nm)     (1e40*cgs)   (au)      (au)      (au)  
-------------------------------------------------------------------
   1    6389.6   1565.0     -0.53968   0.54018  -0.34573   0.34354
   2    9802.8   1020.1      0.07800  -0.02459  -0.02007   0.20923
   3   10398.0    961.7     -0.44827  -0.27730   0.10760   0.26798
   4   11428.9    875.0      0.97731  -0.31314   0.16473   0.05183
   5   11805.9    847.0     -0.65699  -0.01068   0.00319  -0.00917
   6   20086.5    497.8     -0.03485   0.00414   0.00891  -0.00454
   7   20121.6    497.0      0.17225  -0.00675   0.00211  -0.00468
   8   20792.1    481.0     -0.21527   0.30483   0.60749   0.11015
   9   20881.7    478.9      0.51399   0.13265  -0.21451   0.87674
  10   21652.4    461.8      0.00254   0.28040   0.45329   0.06458
  11   22734.9    439.9      1.30968   0.08498   0.12826   0.03310
  12   22868.3    437.3     -0.95405   0.03113  -0.10293   0.47657
  13   23035.4    434.1     -0.23012  -0.03241  -0.05476  -0.00484
  14   23820.4    419.8     -0.42235   0.61687  -0.31858  -0.06397
  15   23982.0    417.0     -0.46159  -0.03977  -0.04463   0.40821
  16   24691.3    405.0     -0.09436   0.09533  -0.04229  -0.10223
  17   24783.6    403.5      0.16353  -0.00210   0.00251  -0.00832
  18   25226.0    396.4      5.98789   0.05385   0.08061   0.03302
  19   25334.3    394.7     -7.18314  -0.03393  -0.03972   0.08236
  20   25922.5    385.8     -1.43163   0.08505  -0.09985   0.34471
  21   26451.6    378.0      2.72027   0.01831  -0.03100   0.01485
  22   27638.4    361.8      0.77493  -0.07353  -0.13753  -0.02486
  23   27873.2    358.8      1.03832  -0.04528   0.01415  -0.00815
  24   27889.6    358.6     -0.29085  -0.04214  -0.08793  -0.01661
  25   30147.9    331.7    -33.62876   0.01424  -0.05144   0.01657
  26   30213.1    331.0     25.97227   0.22105  -0.11597  -0.03953
  27   30777.1    324.9    -11.90636   0.08779  -0.08761  -0.03364
  28   30803.9    324.6      8.46929   0.07147   0.03074  -0.00084
  29   30830.1    324.4     -4.83076   0.08140   0.11263   0.02944
  30   30925.0    323.4      3.85930   0.05565  -0.00332  -0.10379
  31   31059.2    322.0      1.15956   0.04198   0.07326   0.00888
  32   31732.8    315.1     -1.03816  -0.04270   0.03180  -0.04003
  33   31979.4    312.7     -2.21941   0.01242   0.00268   0.01694
  34   32209.2    310.5     -0.71069   0.01888   0.02262  -0.01013
  35   32438.2    308.3     -0.20280   0.00508   0.02877  -0.04448
  36   32844.5    304.5      3.54078  -0.02110  -0.02641  -0.05853
  37   33003.0    303.0     -2.31424  -0.03885   0.07205  -0.26347
  38   33298.7    300.3     -0.03897  -0.00274   0.01210  -0.01802
  39   33505.1    298.5      0.49620   0.01393   0.00599   0.00603
  40   33613.6    297.5     -0.61175  -0.00611  -0.00288  -0.02660
  41   33701.0    296.7      0.16253  -0.00851  -0.02445  -0.01647
  42   34044.7    293.7     -0.27849  -0.03413  -0.03285  -0.00460
  43   34275.4    291.8     -0.04698   0.01371   0.02531  -0.02425
  44   34638.2    288.7     -0.99628   0.01277  -0.03140   0.13406
  45   34889.2    286.6     -5.26324   0.02307  -0.00400   0.03544
  46   34931.9    286.3      3.79152  -0.06148   0.07159  -0.24581
  47   35030.1    285.5      0.23644   0.01708  -0.01426   0.07551
  48   35151.7    284.5     -0.74654   0.01414  -0.02072   0.03120
  49   35252.5    283.7     -2.33460  -0.00182   0.00867  -0.02553
  50   35303.6    283.3      4.50967  -0.01152   0.00575  -0.04235
  51   35832.9    279.1     -0.17099  -0.02831   0.00889   0.03148
  52   36244.8    275.9      2.24054  -0.02159   0.05920  -0.22759
  53   36352.9    275.1     -2.50594  -0.02309  -0.01883  -0.06141
  54   36557.0    273.5     -0.20528  -0.03423   0.02740  -0.02724
  55   36668.8    272.7     -0.19611   0.01247   0.02180   0.00385
  56   36901.5    271.0     -0.34579  -0.03150  -0.06290  -0.00665
  57   37159.0    269.1     -0.78732   0.02235  -0.01307  -0.00892
  58   37804.0    264.5     -2.43908   0.01176  -0.02355  -0.04014
  59   38008.4    263.1     -1.56667  -0.01008  -0.01376   0.00279
  60   38086.4    262.6      6.00320  -0.04135   0.01648  -0.02383

-------------------------------------------------------------------
         CD SPECTRUM VIA TRANSITION VELOCITY DIPOLE MOMENTS        
-------------------------------------------------------------------
State  Energy     Wavelength     R         MX        MY        MZ   
       (cm-1)       (nm)     (1e40*cgs)   (au)      (au)      (au)  
-------------------------------------------------------------------
   1    6389.6   1565.0      1.94297   0.54018  -0.34573   0.34354
   2    9802.8   1020.1      0.06414  -0.02459  -0.02007   0.20923
   3   10398.0    961.7      1.73984  -0.27730   0.10760   0.26798
   4   11428.9    875.0     -4.07155  -0.31314   0.16473   0.05183
   5   11805.9    847.0      2.43270  -0.01068   0.00319  -0.00917
   6   20086.5    497.8     -0.14166   0.00414   0.00891  -0.00454
   7   20121.6    497.0     -0.01389  -0.00675   0.00211  -0.00468
   8   20792.1    481.0      2.99590   0.30483   0.60749   0.11015
   9   20881.7    478.9     -2.12430   0.13265  -0.21451   0.87674
  10   21652.4    461.8     -2.85303   0.28040   0.45329   0.06458
  11   22734.9    439.9     -4.19847   0.08498   0.12826   0.03310
  12   22868.3    437.3      3.71511   0.03113  -0.10293   0.47657
  13   23035.4    434.1      0.38345  -0.03241  -0.05476  -0.00484
  14   23820.4    419.8     -0.27968   0.61687  -0.31858  -0.06397
  15   23982.0    417.0      0.65838  -0.03977  -0.04463   0.40821
  16   24691.3    405.0      0.34061   0.09533  -0.04229  -0.10223
  17   24783.6    403.5     -0.51613  -0.00210   0.00251  -0.00832
  18   25226.0    396.4     -8.08302   0.05385   0.08061   0.03302
  19   25334.3    394.7     10.76285  -0.03393  -0.03972   0.08236
  20   25922.5    385.8      5.43710   0.08505  -0.09985   0.34471
  21   26451.6    378.0     -4.62756   0.01831  -0.03100   0.01485
  22   27638.4    361.8     -0.46732  -0.07353  -0.13753  -0.02486
  23   27873.2    358.8     -1.27557  -0.04528   0.01415  -0.00815
  24   27889.6    358.6      1.86668  -0.04214  -0.08793  -0.01661
  25   30147.9    331.7     20.14414   0.01424  -0.05144   0.01657
  26   30213.1    331.0    -15.27384   0.22105  -0.11597  -0.03953
  27   30777.1    324.9      6.14468   0.08779  -0.08761  -0.03364
  28   30803.9    324.6     -5.43370   0.07147   0.03074  -0.00084
  29   30830.1    324.4      2.84618   0.08140   0.11263   0.02944
  30   30925.0    323.4     -3.15548   0.05565  -0.00332  -0.10379
  31   31059.2    322.0      0.07014   0.04198   0.07326   0.00888
  32   31732.8    315.1      1.26201  -0.04270   0.03180  -0.04003
  33   31979.4    312.7      1.17391   0.01242   0.00268   0.01694
  34   32209.2    310.5      0.93636   0.01888   0.02262  -0.01013
  35   32438.2    308.3      1.60740   0.00508   0.02877  -0.04448
  36   32844.5    304.5     -3.56073  -0.02110  -0.02641  -0.05853
  37   33003.0    303.0      1.26662  -0.03885   0.07205  -0.26347
  38   33298.7    300.3      0.56000  -0.00274   0.01210  -0.01802
  39   33505.1    298.5     -0.78296   0.01393   0.00599   0.00603
  40   33613.6    297.5      0.07176  -0.00611  -0.00288  -0.02660
  41   33701.0    296.7      0.29518  -0.00851  -0.02445  -0.01647
  42   34044.7    293.7     -0.86969  -0.03413  -0.03285  -0.00460
  43   34275.4    291.8      0.03397   0.01371   0.02531  -0.02425
  44   34638.2    288.7      0.21922   0.01277  -0.03140   0.13406
  45   34889.2    286.6      2.19873   0.02307  -0.00400   0.03544
  46   34931.9    286.3     -3.17007  -0.06148   0.07159  -0.24581
  47   35030.1    285.5      1.69570   0.01708  -0.01426   0.07551
  48   35151.7    284.5      0.16864   0.01414  -0.02072   0.03120
  49   35252.5    283.7      1.48874  -0.00182   0.00867  -0.02553
  50   35303.6    283.3     -1.67813  -0.01152   0.00575  -0.04235
  51   35832.9    279.1      0.55980  -0.02831   0.00889   0.03148
  52   36244.8    275.9      1.15547  -0.02159   0.05920  -0.22759
  53   36352.9    275.1     -1.23503  -0.02309  -0.01883  -0.06141
  54   36557.0    273.5     -0.00925  -0.03423   0.02740  -0.02724
  55   36668.8    272.7      0.10981   0.01247   0.02180   0.00385
  56   36901.5    271.0     -0.06650  -0.03150  -0.06290  -0.00665
  57   37159.0    269.1      0.17810   0.02235  -0.01307  -0.00892
  58   37804.0    264.5      0.59752   0.01176  -0.02355  -0.04014
  59   38008.4    263.1      0.48606  -0.01008  -0.01376   0.00279
  60   38086.4    262.6     -1.45214  -0.04135   0.01648  -0.02383

Total run time:    23137.593 sec

           *** ORCA-CIS/TD-DFT FINISHED WITHOUT ERROR ***

Maximum memory used throughout the entire CIS-calculation: 1442.6 MB

-----------------------
CIS/TD-DFT TOTAL ENERGY
-----------------------

    E(SCF)  =  -2950.878788743 Eh
    DE(CIS) =      0.029113369 Eh (Root  1)
    ----------------------------- ---------
    E(tot)  =  -2950.849675374 Eh


-------------------------   --------------------
FINAL SINGLE POINT ENERGY     -2950.849675373822
-------------------------   --------------------


                            ***************************************
                            *     ORCA property calculations      *
                            ***************************************

                                    ---------------------
                                    Active property flags
                                    ---------------------
   (+) Dipole Moment


------------------------------------------------------------------------------
                       ORCA ELECTRIC PROPERTIES CALCULATION
------------------------------------------------------------------------------

Dipole Moment Calculation                       ... on
Quadrupole Moment Calculation                   ... off
Polarizability Calculation                      ... off
GBWName                                         ... Fe_O2_Porphyrin_UVis.gbw
Electron density                                ... Fe_O2_Porphyrin_UVis.scfp
The origin for moment calculation is the CENTER OF MASS  = ( 0.494263, -0.599262  3.077186)

-------------
DIPOLE MOMENT
-------------
                                X             Y             Z
Electronic contribution:     -3.27720       0.92783     -20.40175
Nuclear contribution   :      4.66321      -2.46996      23.05163
                        -----------------------------------------
Total Dipole Moment    :      1.38600      -1.54214       2.64989
                        -----------------------------------------
Magnitude (a.u.)       :      3.36468
Magnitude (Debye)      :      8.55234



--------------------
Rotational spectrum 
--------------------
 
Rotational constants in cm-1:     0.004510     0.002689     0.002593 
Rotational constants in MHz :   135.204212    80.623974    77.736921 

 Dipole components along the rotational axes: 
x,y,z [a.u.] :     2.196181    -1.309466     2.187046 
x,y,z [Debye]:     5.582249    -3.328399     5.559028 

 

Timings for individual modules:

Sum of individual times         ...    34119.146 sec (= 568.652 min)
GTO integral calculation        ...        9.304 sec (=   0.155 min)   0.0 %
SCF iterations                  ...    10959.632 sec (= 182.661 min)  32.1 %
CIS module                      ...    23150.210 sec (= 385.837 min)  67.9 %
                             ****ORCA TERMINATED NORMALLY****
TOTAL RUN TIME: 0 days 9 hours 28 minutes 44 seconds 983 msec
