
                                 *****************
                                 * O   R   C   A *
                                 *****************

                                            #,                                       
                                            ###                                      
                                            ####                                     
                                            #####                                    
                                            ######                                   
                                           ########,                                 
                                     ,,################,,,,,                         
                               ,,#################################,,                 
                          ,,##########################################,,             
                       ,#########################################, ''#####,          
                    ,#############################################,,   '####,        
                  ,##################################################,,,,####,       
                ,###########''''           ''''###############################       
              ,#####''   ,,,,##########,,,,          '''####'''          '####       
            ,##' ,,,,###########################,,,                        '##       
           ' ,,###''''                  '''############,,,                           
         ,,##''                                '''############,,,,        ,,,,,,###''
      ,#''                                            '''#######################'''  
     '                                                          ''''####''''         
             ,#######,   #######,   ,#######,      ##                                
            ,#'     '#,  ##    ##  ,#'     '#,    #''#        ######   ,####,        
            ##       ##  ##   ,#'  ##            #'  '#       #        #'  '#        
            ##       ##  #######   ##           ,######,      #####,   #    #        
            '#,     ,#'  ##    ##  '#,     ,#' ,#      #,         ##   #,  ,#        
             '#######'   ##     ##  '#######'  #'      '#     #####' # '####'        



                  #######################################################
                  #                        -***-                        #
                  #          Department of theory and spectroscopy      #
                  #    Directorship and core code : Frank Neese         #
                  #        Max Planck Institute fuer Kohlenforschung    #
                  #                Kaiser Wilhelm Platz 1               #
                  #                 D-45470 Muelheim/Ruhr               #
                  #                      Germany                        #
                  #                                                     #
                  #                  All rights reserved                #
                  #                        -***-                        #
                  #######################################################



                         Program Version 5.0.4 -  RELEASE  -

 With contributions from (in alphabetic order):
   Daniel Aravena         : Magnetic Suceptibility
   Michael Atanasov       : Ab Initio Ligand Field Theory (pilot matlab implementation)
   Alexander A. Auer      : GIAO ZORA, VPT2 properties, NMR spectrum
   Ute Becker             : Parallelization
   Giovanni Bistoni       : ED, misc. LED, open-shell LED, HFLD
   Martin Brehm           : Molecular dynamics
   Dmytro Bykov           : SCF Hessian
   Vijay G. Chilkuri      : MRCI spin determinant printing, contributions to CSF-ICE
   Dipayan Datta          : RHF DLPNO-CCSD density
   Achintya Kumar Dutta   : EOM-CC, STEOM-CC
   Dmitry Ganyushin       : Spin-Orbit,Spin-Spin,Magnetic field MRCI
   Miquel Garcia          : C-PCM and meta-GGA Hessian, CC/C-PCM, Gaussian charge scheme
   Yang Guo               : DLPNO-NEVPT2, F12-NEVPT2, CIM, IAO-localization
   Andreas Hansen         : Spin unrestricted coupled pair/coupled cluster methods
   Benjamin Helmich-Paris : MC-RPA, TRAH-SCF, COSX integrals
   Lee Huntington         : MR-EOM, pCC
   Robert Izsak           : Overlap fitted RIJCOSX, COSX-SCS-MP3, EOM
   Marcus Kettner         : VPT2
   Christian Kollmar      : KDIIS, OOCD, Brueckner-CCSD(T), CCSD density, CASPT2, CASPT2-K
   Simone Kossmann        : Meta GGA functionals, TD-DFT gradient, OOMP2, MP2 Hessian
   Martin Krupicka        : Initial AUTO-CI
   Lucas Lang             : DCDCAS
   Marvin Lechner         : AUTO-CI (C++ implementation), FIC-MRCC
   Dagmar Lenk            : GEPOL surface, SMD
   Dimitrios Liakos       : Extrapolation schemes; Compound Job, initial MDCI parallelization
   Dimitrios Manganas     : Further ROCIS development; embedding schemes
   Dimitrios Pantazis     : SARC Basis sets
   Anastasios Papadopoulos: AUTO-CI, single reference methods and gradients
   Taras Petrenko         : DFT Hessian,TD-DFT gradient, ASA, ECA, R-Raman, ABS, FL, XAS/XES, NRVS
   Peter Pinski           : DLPNO-MP2, DLPNO-MP2 Gradient
   Christoph Reimann      : Effective Core Potentials
   Marius Retegan         : Local ZFS, SOC
   Christoph Riplinger    : Optimizer, TS searches, QM/MM, DLPNO-CCSD(T), (RO)-DLPNO pert. Triples
   Tobias Risthaus        : Range-separated hybrids, TD-DFT gradient, RPA, STAB
   Michael Roemelt        : Original ROCIS implementation
   Masaaki Saitow         : Open-shell DLPNO-CCSD energy and density
   Barbara Sandhoefer     : DKH picture change effects
   Avijit Sen             : IP-ROCIS
   Kantharuban Sivalingam : CASSCF convergence, NEVPT2, FIC-MRCI
   Bernardo de Souza      : ESD, SOC TD-DFT
   Georgi Stoychev        : AutoAux, RI-MP2 NMR, DLPNO-MP2 response
   Willem Van den Heuvel  : Paramagnetic NMR
   Boris Wezisla          : Elementary symmetry handling
   Frank Wennmohs         : Technical directorship


 We gratefully acknowledge several colleagues who have allowed us to
 interface, adapt or use parts of their codes:
   Stefan Grimme, W. Hujo, H. Kruse, P. Pracht,  : VdW corrections, initial TS optimization,
                  C. Bannwarth, S. Ehlert          DFT functionals, gCP, sTDA/sTD-DF
   Ed Valeev, F. Pavosevic, A. Kumar             : LibInt (2-el integral package), F12 methods
   Garnet Chan, S. Sharma, J. Yang, R. Olivares  : DMRG
   Ulf Ekstrom                                   : XCFun DFT Library
   Mihaly Kallay                                 : mrcc  (arbitrary order and MRCC methods)
   Jiri Pittner, Ondrej Demel                    : Mk-CCSD
   Frank Weinhold                                : gennbo (NPA and NBO analysis)
   Christopher J. Cramer and Donald G. Truhlar   : smd solvation model
   Lars Goerigk                                  : TD-DFT with DH, B97 family of functionals
   V. Asgeirsson, H. Jonsson                     : NEB implementation
   FAccTs GmbH                                   : IRC, NEB, NEB-TS, DLPNO-Multilevel, CI-OPT
                                                   MM, QMMM, 2- and 3-layer-ONIOM, Crystal-QMMM,
                                                   LR-CPCM, SF, NACMEs, symmetry and pop. for TD-DFT,
                                                   nearIR, NL-DFT gradient (VV10), updates on ESD,
                                                   ML-optimized integration grids
   S Lehtola, MJT Oliveira, MAL Marques          : LibXC Library
   Liviu Ungur et al                             : ANISO software


 Your calculation uses the libint2 library for the computation of 2-el integrals
 For citations please refer to: http://libint.valeyev.net

 Your ORCA version has been built with support for libXC version: 5.1.0
 For citations please refer to: https://tddft.org/programs/libxc/

 This ORCA versions uses:
   CBLAS   interface :  Fast vector & matrix operations
   LAPACKE interface :  Fast linear algebra routines
   Shared memory     :  Shared parallel matrices


Your calculation utilizes the atom-pairwise dispersion correction
based on tight binding partial charges (D4)
Cite in your paper:
E.Caldeweyher, C.Bannwarth, S.Grimme, J.Chem.Phys., (2017), 147, 034112.
E.Caldeweyher, S.Ehlert, A.Hansen, H.Neugebauer, S.Grimme, J.Chem.Phys., (2018), in progress.
   

================================================================================

----- Orbital basis set information -----
Your calculation utilizes the basis: def2-QZVPP
   F. Weigend and R. Ahlrichs, Phys. Chem. Chem. Phys. 7, 3297 (2005).

----- AuxJ basis set information -----
Your calculation utilizes the auxiliary basis: def2/J
   F. Weigend, Phys. Chem. Chem. Phys. 8, 1057 (2006).

================================================================================
                                        WARNINGS
                       Please study these warnings very carefully!
================================================================================

WARNING: Old DensityContainer found on disk!
         Will remove this file - 
         If you want to keep old densities, please start your calculation with a different basename. 


WARNING: your system is open-shell and RHF/RKS was chosen
  ===> : WILL SWITCH to UHF/UKS


INFO   : the flag for use of the SHARK integral package has been found!

================================================================================
                                       INPUT FILE
================================================================================
NAME = kation.inp
|  1> !B3LYP DEF2-QZVPP D4 KEEPDENS SOSCF
|  2> 
|  3> %scf
|  4> convergence verytight
|  5> end
|  6> 
|  7> * xyz 1 2
|  8>   C   -3.86516734357010      0.94434157945665     -0.07538725943809
|  9>   C   -4.92272831379506      0.26873722983356     -0.70264597592121
| 10>   C   -5.03057771819703     -1.11798142899817     -0.59784356576840
| 11>   C   -4.08352665954933     -1.84223577131705      0.13553018590779
| 12>   C   -3.02981102252337     -1.17199643200787      0.76088165488684
| 13>   C   -2.91953321612422      0.21863970639081      0.65722704147654
| 14>   C   -3.81073419980518      2.46478525764726     -0.19518116082199
| 15>   H   -5.65406019384117      0.84349861132032     -1.27491300280147
| 16>   H   -5.85623938274783     -1.63850776567522     -1.09027562821825
| 17>   H   -4.16802260279406     -2.92913883238131      0.21698779894580
| 18>   H   -2.28611135457989     -1.73328106107773      1.33282673748350
| 19>   H   -2.09792478362700      0.74948053847094      1.13911505725274
| 20>   O   -4.89378187167171      3.07132909731433      0.44720048381772
| 21>   H   -4.93072682950342      2.71104471332091      1.34348100678890
| 22>   O   -2.59608443456263      2.90295951283218      0.34520695932434
| 23>   H   -2.62116462808870      3.87067963083761      0.29505823914507
| 24>   O   -3.95270938377184      2.89080295116375     -1.51804130322301
| 25>   H   -3.24608606124737      2.46925246286899     -2.02593726883681
| 26> **                         ****END OF INPUT****
================================================================================

                       ****************************
                       * Single Point Calculation *
                       ****************************

---------------------------------
CARTESIAN COORDINATES (ANGSTROEM)
---------------------------------
  C     -3.865167    0.944342   -0.075387
  C     -4.922728    0.268737   -0.702646
  C     -5.030578   -1.117981   -0.597844
  C     -4.083527   -1.842236    0.135530
  C     -3.029811   -1.171996    0.760882
  C     -2.919533    0.218640    0.657227
  C     -3.810734    2.464785   -0.195181
  H     -5.654060    0.843499   -1.274913
  H     -5.856239   -1.638508   -1.090276
  H     -4.168023   -2.929139    0.216988
  H     -2.286111   -1.733281    1.332827
  H     -2.097925    0.749481    1.139115
  O     -4.893782    3.071329    0.447200
  H     -4.930727    2.711045    1.343481
  O     -2.596084    2.902960    0.345207
  H     -2.621165    3.870680    0.295058
  O     -3.952709    2.890803   -1.518041
  H     -3.246086    2.469252   -2.025937

----------------------------
CARTESIAN COORDINATES (A.U.)
----------------------------
  NO LB      ZA    FRAG     MASS         X           Y           Z
   0 C     6.0000    0    12.011   -7.304108    1.784547   -0.142461
   1 C     6.0000    0    12.011   -9.302608    0.507840   -1.327808
   2 C     6.0000    0    12.011   -9.506414   -2.112679   -1.129761
   3 C     6.0000    0    12.011   -7.716747   -3.481321    0.256115
   4 C     6.0000    0    12.011   -5.725513   -2.214752    1.437858
   5 C     6.0000    0    12.011   -5.517118    0.413169    1.241979
   6 C     6.0000    0    12.011   -7.201244    4.657769   -0.368839
   7 H     1.0000    0     1.008  -10.684625    1.593981   -2.409236
   8 H     1.0000    0     1.008  -11.066689   -3.096331   -2.060322
   9 H     1.0000    0     1.008   -7.876421   -5.535270    0.410048
  10 H     1.0000    0     1.008   -4.320124   -3.275427    2.518678
  11 H     1.0000    0     1.008   -3.964503    1.416313    2.152615
  12 O     8.0000    0    15.999   -9.247907    5.803971    0.845086
  13 H     1.0000    0     1.008   -9.317723    5.123132    2.538811
  14 O     8.0000    0    15.999   -4.905889    5.485798    0.652347
  15 H     1.0000    0     1.008   -4.953283    7.314524    0.557579
  16 O     8.0000    0    15.999   -7.469538    5.462826   -2.868682
  17 H     1.0000    0     1.008   -6.134214    4.666211   -3.828467

--------------------------------
INTERNAL COORDINATES (ANGSTROEM)
--------------------------------
 C      0   0   0     0.000000000000     0.00000000     0.00000000
 C      1   0   0     1.402971824513     0.00000000     0.00000000
 C      2   1   0     1.394848980340   120.22763019     0.00000000
 C      3   2   1     1.399745376739   120.09630738     0.05558802
 C      4   3   2     1.396639493722   119.78517406   359.94463727
 C      5   4   3     1.398847505229   120.22365614     0.05578502
 C      1   2   3     1.526126641042   118.13499631   181.34013878
 H      2   1   3     1.092101879165   119.05374392   180.25029110
 H      3   2   1     1.093231076951   119.86197587   180.09111313
 H      4   3   2     1.093221464891   120.07765090   180.03543261
 H      5   4   3     1.093275266544   120.07212216   180.14944323
 H      6   5   4     1.090434988939   120.70453933   180.23468441
 O      7   1   2     1.397691620617   111.63117384    65.22807164
 H     13   7   1     0.966689476055   107.09783566    51.43966920
 O      7   1   2     1.399782143945   108.21065635   187.71899960
 H     15   7   1     0.969343147206   105.66917547   183.01997477
 O      7   1   2     1.396999278598   111.99472172   310.38055645
 H     17   7   1     0.966943455433   106.86800751   302.42020382

---------------------------
INTERNAL COORDINATES (A.U.)
---------------------------
 C      0   0   0     0.000000000000     0.00000000     0.00000000
 C      1   0   0     2.651232521937     0.00000000     0.00000000
 C      2   1   0     2.635882571022   120.22763019     0.00000000
 C      3   2   1     2.645135419258   120.09630738     0.05558802
 C      4   3   2     2.639266150954   119.78517406   359.94463727
 C      5   4   3     2.643438688002   120.22365614     0.05578502
 C      1   2   3     2.883961397251   118.13499631   181.34013878
 H      2   1   3     2.063773461962   119.05374392   180.25029110
 H      3   2   1     2.065907336530   119.86197587   180.09111313
 H      4   3   2     2.065889172367   120.07765090   180.03543261
 H      5   4   3     2.065990842757   120.07212216   180.14944323
 H      6   5   4     2.060623495940   120.70453933   180.23468441
 O      7   1   2     2.641254382643   111.63117384    65.22807164
 H     13   7   1     1.826778366288   107.09783566    51.43966920
 O      7   1   2     2.645204899208   108.21065635   187.71899960
 H     15   7   1     1.831793078013   105.66917547   183.01997477
 O      7   1   2     2.639946045837   111.99472172   310.38055645
 H     17   7   1     1.827258317755   106.86800751   302.42020382

---------------------
BASIS SET INFORMATION
---------------------
There are 3 groups of distinct atoms

 Group   1 Type C   : 15s8p3d2f1g contracted to 7s4p3d2f1g pattern {8211111/5111/111/11/1}
 Group   2 Type H   : 7s3p2d1f contracted to 4s3p2d1f pattern {4111/111/11/1}
 Group   3 Type O   : 15s8p3d2f1g contracted to 7s4p3d2f1g pattern {8211111/5111/111/11/1}

Atom   0C    basis set group =>   1
Atom   1C    basis set group =>   1
Atom   2C    basis set group =>   1
Atom   3C    basis set group =>   1
Atom   4C    basis set group =>   1
Atom   5C    basis set group =>   1
Atom   6C    basis set group =>   1
Atom   7H    basis set group =>   2
Atom   8H    basis set group =>   2
Atom   9H    basis set group =>   2
Atom  10H    basis set group =>   2
Atom  11H    basis set group =>   2
Atom  12O    basis set group =>   3
Atom  13H    basis set group =>   2
Atom  14O    basis set group =>   3
Atom  15H    basis set group =>   2
Atom  16O    basis set group =>   3
Atom  17H    basis set group =>   2
---------------------------------
AUXILIARY/J BASIS SET INFORMATION
---------------------------------
There are 3 groups of distinct atoms

 Group   1 Type C   : 12s5p4d2f1g contracted to 6s4p3d1f1g pattern {711111/2111/211/2/1}
 Group   2 Type H   : 5s2p1d contracted to 3s1p1d pattern {311/2/1}
 Group   3 Type O   : 12s5p4d2f1g contracted to 6s4p3d1f1g pattern {711111/2111/211/2/1}

Atom   0C    basis set group =>   1
Atom   1C    basis set group =>   1
Atom   2C    basis set group =>   1
Atom   3C    basis set group =>   1
Atom   4C    basis set group =>   1
Atom   5C    basis set group =>   1
Atom   6C    basis set group =>   1
Atom   7H    basis set group =>   2
Atom   8H    basis set group =>   2
Atom   9H    basis set group =>   2
Atom  10H    basis set group =>   2
Atom  11H    basis set group =>   2
Atom  12O    basis set group =>   3
Atom  13H    basis set group =>   2
Atom  14O    basis set group =>   3
Atom  15H    basis set group =>   2
Atom  16O    basis set group =>   3
Atom  17H    basis set group =>   2

Checking for AutoStart:
The File: kation.gbw exists
Trying to determine its content:
     ... Fine, the file contains calculation information
     ... Fine, the calculation information was read
     ... Fine, the file contains a basis set
     ... Fine, the basis set was read
     ... Fine, the file contains a geometry
     ... Fine, the geometry was read
     ... Fine, the file contains a set of orbitals
     ... Fine, the orbitals can be read
     => possible old guess file was deleted
     => GBW file was renamed to GES file
     => GES file is set as startup file
     => Guess is set to MORead
     ... now leaving AutoStart

------------------------------------------------------------------------------
                           ORCA GTO INTEGRAL CALCULATION
                           -- RI-GTO INTEGRALS CHOSEN --
------------------------------------------------------------------------------
------------------------------------------------------------------------------
                   ___                                                        
                  /   \      - P O W E R E D   B Y -                         
                 /     \                                                     
                 |  |  |   _    _      __       _____    __    __             
                 |  |  |  | |  | |    /  \     |  _  \  |  |  /  |          
                  \  \/   | |  | |   /    \    | | | |  |  | /  /          
                 / \  \   | |__| |  /  /\  \   | |_| |  |  |/  /          
                |  |  |   |  __  | /  /__\  \  |    /   |      \           
                |  |  |   | |  | | |   __   |  |    \   |  |\   \          
                \     /   | |  | | |  |  |  |  | |\  \  |  | \   \       
                 \___/    |_|  |_| |__|  |__|  |_| \__\ |__|  \__/        
                                                                              
                      - O R C A' S   B I G   F R I E N D -                    
                                      &                                       
                       - I N T E G R A L  F E E D E R -                       
                                                                              
 v1 FN, 2020, v2 2021                                                         
------------------------------------------------------------------------------


Reading SHARK input file kation.SHARKINP.tmp ... ok
----------------------
SHARK INTEGRAL PACKAGE
----------------------

Number of atoms                             ...     18
Number of basis functions                   ...    810
Number of shells                            ...    250
Maximum angular momentum                    ...      4
Integral batch strategy                     ... SHARK/LIBINT Hybrid
RI-J (if used) integral strategy            ... SPLIT-RIJ (Revised 2003 algorithm where possible)
Printlevel                                  ...      1
Contraction scheme used                     ... SEGMENTED contraction
Coulomb Range Separation                    ... NOT USED
Exchange Range Separation                   ... NOT USED
Finite Nucleus Model                        ... NOT USED
Auxiliary Coulomb fitting basis             ... AVAILABLE
   # of basis functions in Aux-J            ...    578
   # of shells in Aux-J                     ...    190
   Maximum angular momentum in Aux-J        ...      4
Auxiliary J/K fitting basis                 ... NOT available
Auxiliary Correlation fitting basis         ... NOT available
Auxiliary 'external' fitting basis          ... NOT available
Integral threshold                          ...     1.000000e-12
Primitive cut-off                           ...     1.000000e-14
Primitive pair pre-selection threshold      ...     1.000000e-14

Calculating pre-screening integrals         ... done (  1.6 sec) Dimension = 250
Organizing shell pair data                  ... done (  1.4 sec)
Shell pair information
Total number of shell pairs                 ...     31375
Shell pairs after pre-screening             ...     26462
Total number of primitive shell pairs       ...     78253
Primitive shell pairs kept                  ...     50047
          la=0 lb=0:   4098 shell pairs
          la=1 lb=0:   5699 shell pairs
          la=1 lb=1:   1920 shell pairs
          la=2 lb=0:   3804 shell pairs
          la=2 lb=1:   2604 shell pairs
          la=2 lb=2:    911 shell pairs
          la=3 lb=0:   2303 shell pairs
          la=3 lb=1:   1591 shell pairs
          la=3 lb=2:   1077 shell pairs
          la=3 lb=3:    338 shell pairs
          la=4 lb=0:    851 shell pairs
          la=4 lb=1:    581 shell pairs
          la=4 lb=2:    393 shell pairs
          la=4 lb=3:    243 shell pairs
          la=4 lb=4:     49 shell pairs

Calculating one electron integrals          ... done (  0.4 sec)
Calculating RI/J V-Matrix + Cholesky decomp.... done (  0.0 sec)
Calculating Nuclear repulsion               ... done (  0.0 sec) ENN=    527.801535938430 Eh

SHARK setup successfully completed in   6.9 seconds

Maximum memory used throughout the entire GTOINT-calculation: 886.5 MB
-------------------------------------------------------------------------------
                                 ORCA SCF
-------------------------------------------------------------------------------

------------
SCF SETTINGS
------------
Hamiltonian:
 Density Functional     Method          .... DFT(GTOs)
 Exchange Functional    Exchange        .... B88
   X-Alpha parameter    XAlpha          ....  0.666667
   Becke's b parameter  XBeta           ....  0.004200
 Correlation Functional Correlation     .... LYP
 LDA part of GGA corr.  LDAOpt          .... VWN-5
 Gradients option       PostSCFGGA      .... off
 Hybrid DFT is turned on
   Fraction HF Exchange ScalHFX         ....  0.200000
   Scaling of DF-GGA-X  ScalDFX         ....  0.720000
   Scaling of DF-GGA-C  ScalDFC         ....  0.810000
   Scaling of DF-LDA-C  ScalLDAC        ....  1.000000
   Perturbative correction              ....  0.000000
   Density functional embedding theory  .... OFF
   NL short-range parameter             ....  4.800000
 RI-approximation to the Coulomb term is turned on
   Number of AuxJ basis functions       .... 578
   RIJ-COSX (HFX calculated with COS-X)).... on


General Settings:
 Integral files         IntName         .... kation
 Hartree-Fock type      HFTyp           .... UHF
 Total Charge           Charge          ....    1
 Multiplicity           Mult            ....    2
 Number of Electrons    NEL             ....   73
 Basis Dimension        Dim             ....  810
 Nuclear Repulsion      ENuc            ....    527.8015359384 Eh

Convergence Acceleration:
 DIIS                   CNVDIIS         .... on
   Start iteration      DIISMaxIt       ....    12
   Startup error        DIISStart       ....  0.200000
   # of expansion vecs  DIISMaxEq       ....     5
   Bias factor          DIISBfac        ....   1.050
   Max. coefficient     DIISMaxC        ....  10.000
 Trust-Rad. Augm. Hess. CNVTRAH         .... auto
   Auto Start mean grad. ratio tolernc. ....  1.125000
   Auto Start start iteration           ....     1
   Auto Start num. interpolation iter.  ....    10
   Max. Number of Micro iterations      ....    16
   Max. Number of Macro iterations      .... Maxiter - #DIIS iter
   Number of Davidson start vectors     ....     2
   Converg. threshold I  (grad. norm)   ....   2.000e-06
   Converg. threshold II (energy diff.) ....   1.000e-09
   Grad. Scal. Fac. for Micro threshold ....   0.100
   Minimum threshold for Micro iter.    ....   0.010
   NR start threshold (gradient norm)   ....   0.001
   Initial trust radius                 ....   0.400
   Minimum AH scaling param. (alpha)    ....   1.000
   Maximum AH scaling param. (alpha)    .... 1000.000
   Orbital update algorithm             .... Taylor
   White noise on init. David. guess    .... on
   Maximum white noise                  ....   0.010
   Quad. conv. algorithm                .... NR
 SOSCF                  CNVSOSCF        .... on
   Start iteration      SOSCFMaxIt      ....   150
   Startup grad/error   SOSCFStart      ....  0.003300
 Level Shifting         CNVShift        .... on
   Level shift para.    LevelShift      ....    0.2500
   Turn off err/grad.   ShiftErr        ....    0.0010
 Zerner damping         CNVZerner       .... off
 Static damping         CNVDamp         .... on
   Fraction old density DampFac         ....    0.7000
   Max. Damping (<1)    DampMax         ....    0.9800
   Min. Damping (>=0)   DampMin         ....    0.0000
   Turn off err/grad.   DampErr         ....    0.1000
 Fernandez-Rico         CNVRico         .... off

SCF Procedure:
 Maximum # iterations   MaxIter         ....   125
 SCF integral mode      SCFMode         .... Direct
   Integral package                     .... SHARK and LIBINT hybrid scheme
 Reset frequency        DirectResetFreq ....    20
 Integral Threshold     Thresh          ....  1.000e-12 Eh
 Primitive CutOff       TCut            ....  1.000e-14 Eh

Convergence Tolerance:
 Convergence Check Mode ConvCheckMode   .... Total+1el-Energy
 Convergence forced     ConvForced      .... 0
 Energy Change          TolE            ....  1.000e-09 Eh
 1-El. energy change                    ....  1.000e-06 Eh
 Orbital Gradient       TolG            ....  2.000e-06
 Orbital Rotation angle TolX            ....  2.000e-06
 DIIS Error             TolErr          ....  1.000e-08


Diagonalization of the overlap matrix:
Smallest eigenvalue                        ... 6.402e-06
Time for diagonalization                   ...    0.235 sec
Threshold for overlap eigenvalues          ... 1.000e-08
Number of eigenvalues below threshold      ... 0
Time for construction of square roots      ...    0.156 sec
Total time needed                          ...    0.392 sec

---------------------
INITIAL GUESS: MOREAD
---------------------
Guess MOs are being read from file: kation.ges
Input Geometry matches current geometry (good)
Input basis set matches current basis set (good)
MOs were renormalized
MOs were reorthogonalized (Cholesky)
                      ------------------
                      INITIAL GUESS DONE (   1.1 sec)
                      ------------------
-------------------
DFT GRID GENERATION
-------------------

General Integration Accuracy     IntAcc      ... 4.388
Radial Grid Type                 RadialGrid  ... OptM3 with GC (2021)
Angular Grid (max. ang.)         AngularGrid ... 4 (Lebedev-302)
Angular grid pruning method      GridPruning ... 4 (adaptive)
Weight generation scheme         WeightScheme... Becke
Basis function cutoff            BFCut       ... 1.0000e-12
Integration weight cutoff        WCut        ... 1.0000e-14
Angular grids for H and He will be reduced by one unit
Partially contracted basis set               ... off
Rotationally invariant grid construction     ... off

Total number of grid points                  ...    88594
Total number of batches                      ...     1394
Average number of points per batch           ...       63
Average number of grid points per atom       ...     4922
Time for grid setup =    4.899 sec

--------------------
COSX GRID GENERATION
--------------------

GRIDX 1
-------
General Integration Accuracy     IntAcc      ... 3.816
Radial Grid Type                 RadialGrid  ... OptM3 with GC (2021)
Angular Grid (max. ang.)         AngularGrid ... 1 (Lebedev-50)
Angular grid pruning method      GridPruning ... 4 (adaptive)
Weight generation scheme         WeightScheme... Becke
Basis function cutoff            BFCut       ... 1.0000e-12
Integration weight cutoff        WCut        ... 1.0000e-14
Angular grids for H and He will be reduced by one unit
Partially contracted basis set               ... on
Rotationally invariant grid construction     ... off

Total number of grid points                  ...    11320
Total number of batches                      ...      188
Average number of points per batch           ...       60
Average number of grid points per atom       ...      629
UseSFitting                                  ... on

GRIDX 2
-------
General Integration Accuracy     IntAcc      ... 4.020
Radial Grid Type                 RadialGrid  ... OptM3 with GC (2021)
Angular Grid (max. ang.)         AngularGrid ... 2 (Lebedev-110)
Angular grid pruning method      GridPruning ... 4 (adaptive)
Weight generation scheme         WeightScheme... Becke
Basis function cutoff            BFCut       ... 1.0000e-12
Integration weight cutoff        WCut        ... 1.0000e-14
Angular grids for H and He will be reduced by one unit
Partially contracted basis set               ... on
Rotationally invariant grid construction     ... off

Total number of grid points                  ...    27087
Total number of batches                      ...      433
Average number of points per batch           ...       62
Average number of grid points per atom       ...     1505
UseSFitting                                  ... on

GRIDX 3
-------
General Integration Accuracy     IntAcc      ... 4.338
Radial Grid Type                 RadialGrid  ... OptM3 with GC (2021)
Angular Grid (max. ang.)         AngularGrid ... 3 (Lebedev-194)
Angular grid pruning method      GridPruning ... 4 (adaptive)
Weight generation scheme         WeightScheme... Becke
Basis function cutoff            BFCut       ... 1.0000e-12
Integration weight cutoff        WCut        ... 1.0000e-14
Angular grids for H and He will be reduced by one unit
Partially contracted basis set               ... on
Rotationally invariant grid construction     ... off

Total number of grid points                  ...    58468
Total number of batches                      ...      925
Average number of points per batch           ...       63
Average number of grid points per atom       ...     3248
UseSFitting                                  ... on

Time for X-Grid setup             =   11.726 sec

--------------
SCF ITERATIONS
--------------
ITER       Energy         Delta-E        Max-DP      RMS-DP      [F,P]     Damp
               ***  Starting incremental Fock matrix formation  ***
                      *** Initiating the SOSCF procedure ***
                      *** Re-Reading the Fockian *** 
                      *** Removing any level shift *** 
ITER      Energy       Delta-E        Grad      Rot      Max-DP    RMS-DP
  0   -496.87144494 -496.8714449356  0.000042  0.000042  0.000292  0.000004
               *** Restarting incremental Fock matrix formation ***
  1   -496.87144495  -0.0000000103  0.000001  0.000019  0.000042  0.000000
  2   -496.87144495   0.0000000005  0.000004  0.000018  0.000005  0.000000
                  ***Gradient check signals convergence***
              ***Rediagonalizing the Fockian in SOSCF/NRSCF***

               *****************************************************
               *                     SUCCESS                       *
               *           SCF CONVERGED AFTER   3 CYCLES          *
               *****************************************************

Old exchange energy                            =    -12.698606886 Eh
New exchange energy                            =    -12.698604052 Eh
Exchange energy change after final integration =      0.000002833 Eh
Total energy after final integration           =   -496.871442113 Eh
Final COS-X integration done in                =   520.816 sec

----------------
TOTAL SCF ENERGY
----------------

Total Energy       :         -496.87144211 Eh          -13520.55931 eV

Components:
Nuclear Repulsion  :          527.80153594 Eh           14362.20995 eV
Electronic Energy  :        -1024.67297805 Eh          -27882.76927 eV
One Electron Energy:        -1710.11096730 Eh          -46534.48519 eV
Two Electron Energy:          685.43798925 Eh           18651.71592 eV
Max COSX asymmetry :            0.00000032 Eh               0.00001 eV

Virial components:
Potential Energy   :         -991.68538596 Eh          -26985.13125 eV
Kinetic Energy     :          494.81394385 Eh           13464.57194 eV
Virial Ratio       :            2.00415813


DFT components:
N(Alpha)           :       36.999963820164 electrons
N(Beta)            :       35.999958822142 electrons
N(Total)           :       72.999922642306 electrons
E(X)               :      -50.551721156386 Eh       
E(C)               :       -2.965506601115 Eh       
E(XC)              :      -53.517227757501 Eh       
DFET-embed. en.    :        0.000000000000 Eh       

---------------
SCF CONVERGENCE
---------------

  Last Energy change         ...   -8.2377e-10  Tolerance :   1.0000e-09
  Last MAX-Density change    ...    6.1062e-16  Tolerance :   1.0000e-08
  Last RMS-Density change    ...    2.8982e-18  Tolerance :   1.0000e-09
  Last Orbital Gradient      ...    2.3880e-07  Tolerance :   2.0000e-06
  Last Orbital Rotation      ...    2.4193e-06  Tolerance :   2.0000e-06

             **** THE GBW FILE WAS UPDATED (kation.gbw) ****
             **** DENSITY kation.scfp WAS UPDATED ****
             **** ENERGY FILE WAS UPDATED (kation.en.tmp) ****
----------------------
UHF SPIN CONTAMINATION
----------------------

Warning: in a DFT calculation there is little theoretical justification to 
         calculate <S**2> as in Hartree-Fock theory. We will do it anyways
         but you should keep in mind that the values have only limited relevance

Expectation value of <S**2>     :     0.761008
Ideal value S*(S+1) for S=0.5   :     0.750000
Deviation                       :     0.011008

             **** THE GBW FILE WAS UPDATED (kation.gbw) ****
             **** DENSITY kation.scfp WAS UPDATED ****
----------------
ORBITAL ENERGIES
----------------
                 SPIN UP ORBITALS
  NO   OCC          E(Eh)            E(eV) 
   0   1.0000     -19.330660      -526.0140 
   1   1.0000     -19.324953      -525.8587 
   2   1.0000     -19.317061      -525.6440 
   3   1.0000     -10.521611      -286.3076 
   4   1.0000     -10.424815      -283.6736 
   5   1.0000     -10.413366      -283.3621 
   6   1.0000     -10.401454      -283.0379 
   7   1.0000     -10.398248      -282.9507 
   8   1.0000     -10.384259      -282.5700 
   9   1.0000     -10.381681      -282.4999 
  10   1.0000      -1.294340       -35.2208 
  11   1.0000      -1.198538       -32.6139 
  12   1.0000      -1.189137       -32.3581 
  13   1.0000      -1.077781       -29.3279 
  14   1.0000      -0.982792       -26.7431 
  15   1.0000      -0.954349       -25.9691 
  16   1.0000      -0.861458       -23.4415 
  17   1.0000      -0.820639       -22.3307 
  18   1.0000      -0.803897       -21.8752 
  19   1.0000      -0.762826       -20.7576 
  20   1.0000      -0.718970       -19.5642 
  21   1.0000      -0.684212       -18.6184 
  22   1.0000      -0.680019       -18.5043 
  23   1.0000      -0.657240       -17.8844 
  24   1.0000      -0.643852       -17.5201 
  25   1.0000      -0.622979       -16.9521 
  26   1.0000      -0.612208       -16.6590 
  27   1.0000      -0.604410       -16.4468 
  28   1.0000      -0.583742       -15.8844 
  29   1.0000      -0.574058       -15.6209 
  30   1.0000      -0.550281       -14.9739 
  31   1.0000      -0.533653       -14.5214 
  32   1.0000      -0.526719       -14.3327 
  33   1.0000      -0.492484       -13.4012 
  34   1.0000      -0.489034       -13.3073 
  35   1.0000      -0.469376       -12.7724 
  36   1.0000      -0.462542       -12.5864 
  37   0.0000      -0.241017        -6.5584 
  38   0.0000      -0.217423        -5.9164 
  39   0.0000      -0.139285        -3.7901 
  40   0.0000      -0.116370        -3.1666 
  41   0.0000      -0.101871        -2.7720 
  42   0.0000      -0.093244        -2.5373 
  43   0.0000      -0.088711        -2.4139 
  44   0.0000      -0.078497        -2.1360 
  45   0.0000      -0.077458        -2.1077 
  46   0.0000      -0.061240        -1.6664 
  47   0.0000      -0.047267        -1.2862 
  48   0.0000      -0.032092        -0.8733 
  49   0.0000      -0.027183        -0.7397 
  50   0.0000      -0.003347        -0.0911 
  51   0.0000      -0.000701        -0.0191 
  52   0.0000       0.002309         0.0628 
  53   0.0000       0.012613         0.3432 
  54   0.0000       0.020128         0.5477 
  55   0.0000       0.025547         0.6952 
  56   0.0000       0.035921         0.9775 
  57   0.0000       0.037053         1.0083 
  58   0.0000       0.044523         1.2115 
  59   0.0000       0.049531         1.3478 
  60   0.0000       0.058823         1.6007 
  61   0.0000       0.064290         1.7494 
  62   0.0000       0.072164         1.9637 
  63   0.0000       0.077270         2.1026 
  64   0.0000       0.090602         2.4654 
  65   0.0000       0.097126         2.6429 
  66   0.0000       0.104432         2.8418 
  67   0.0000       0.109112         2.9691 
  68   0.0000       0.125644         3.4189 
  69   0.0000       0.131018         3.5652 
  70   0.0000       0.135481         3.6866 
  71   0.0000       0.137181         3.7329 
  72   0.0000       0.146500         3.9865 
  73   0.0000       0.148917         4.0522 
  74   0.0000       0.164549         4.4776 
  75   0.0000       0.173383         4.7180 
  76   0.0000       0.174260         4.7419 
  77   0.0000       0.180368         4.9081 
  78   0.0000       0.191964         5.2236 
  79   0.0000       0.202597         5.5129 
  80   0.0000       0.213469         5.8088 
  81   0.0000       0.216136         5.8814 
  82   0.0000       0.229812         6.2535 
  83   0.0000       0.234880         6.3914 
  84   0.0000       0.243215         6.6182 
  85   0.0000       0.248345         6.7578 
  86   0.0000       0.259772         7.0687 
  87   0.0000       0.268349         7.3021 
  88   0.0000       0.269803         7.3417 
  89   0.0000       0.279284         7.5997 
  90   0.0000       0.286849         7.8056 
  91   0.0000       0.293555         7.9880 
  92   0.0000       0.310066         8.4373 
  93   0.0000       0.313083         8.5194 
  94   0.0000       0.328594         8.9415 
  95   0.0000       0.334646         9.1062 
  96   0.0000       0.349287         9.5046 
  97   0.0000       0.355639         9.6774 
  98   0.0000       0.357159         9.7188 
  99   0.0000       0.366061         9.9610 
 100   0.0000       0.376784        10.2528 
 101   0.0000       0.385847        10.4994 
 102   0.0000       0.389997        10.6124 
 103   0.0000       0.396666        10.7938 
 104   0.0000       0.404961        11.0195 
 105   0.0000       0.413340        11.2475 
 106   0.0000       0.418497        11.3879 
 107   0.0000       0.450831        12.2677 
 108   0.0000       0.455189        12.3863 
 109   0.0000       0.469726        12.7819 
 110   0.0000       0.473689        12.8897 
 111   0.0000       0.490635        13.3509 
 112   0.0000       0.506303        13.7772 
 113   0.0000       0.510378        13.8881 
 114   0.0000       0.521952        14.2030 
 115   0.0000       0.529542        14.4096 
 116   0.0000       0.538329        14.6487 
 117   0.0000       0.547382        14.8950 
 118   0.0000       0.562902        15.3173 
 119   0.0000       0.567258        15.4359 
 120   0.0000       0.572163        15.5693 
 121   0.0000       0.581110        15.8128 
 122   0.0000       0.586992        15.9729 
 123   0.0000       0.593489        16.1497 
 124   0.0000       0.595849        16.2139 
 125   0.0000       0.609428        16.5834 
 126   0.0000       0.622017        16.9259 
 127   0.0000       0.645940        17.5769 
 128   0.0000       0.650872        17.7111 
 129   0.0000       0.651565        17.7300 
 130   0.0000       0.666446        18.1349 
 131   0.0000       0.681634        18.5482 
 132   0.0000       0.689192        18.7539 
 133   0.0000       0.700494        19.0614 
 134   0.0000       0.703794        19.1512 
 135   0.0000       0.711933        19.3727 
 136   0.0000       0.720656        19.6101 
 137   0.0000       0.731414        19.9028 
 138   0.0000       0.734351        19.9827 
 139   0.0000       0.743916        20.2430 
 140   0.0000       0.748168        20.3587 
 141   0.0000       0.756905        20.5964 
 142   0.0000       0.763992        20.7893 
 143   0.0000       0.769340        20.9348 
 144   0.0000       0.777430        21.1550 
 145   0.0000       0.800520        21.7832 
 146   0.0000       0.810046        22.0425 
 147   0.0000       0.820305        22.3216 
 148   0.0000       0.831529        22.6271 
 149   0.0000       0.841939        22.9103 
 150   0.0000       0.844331        22.9754 
 151   0.0000       0.857959        23.3462 
 152   0.0000       0.864943        23.5363 
 153   0.0000       0.871978        23.7277 
 154   0.0000       0.873713        23.7749 
 155   0.0000       0.877912        23.8892 
 156   0.0000       0.902542        24.5594 
 157   0.0000       0.917812        24.9749 
 158   0.0000       0.919169        25.0119 
 159   0.0000       0.930453        25.3189 
 160   0.0000       0.944738        25.7076 
 161   0.0000       0.946579        25.7577 
 162   0.0000       0.953170        25.9371 
 163   0.0000       0.972435        26.4613 
 164   0.0000       0.984116        26.7792 
 165   0.0000       0.988971        26.9113 
 166   0.0000       1.001403        27.2496 
 167   0.0000       1.008237        27.4355 
 168   0.0000       1.034146        28.1406 
 169   0.0000       1.039263        28.2798 
 170   0.0000       1.069941        29.1146 
 171   0.0000       1.088297        29.6141 
 172   0.0000       1.100627        29.9496 
 173   0.0000       1.105089        30.0710 
 174   0.0000       1.114274        30.3209 
 175   0.0000       1.137938        30.9649 
 176   0.0000       1.147859        31.2348 
 177   0.0000       1.172303        31.9000 
 178   0.0000       1.194082        32.4926 
 179   0.0000       1.196484        32.5580 
 180   0.0000       1.201804        32.7027 
 181   0.0000       1.221032        33.2260 
 182   0.0000       1.238494        33.7011 
 183   0.0000       1.242160        33.8009 
 184   0.0000       1.256973        34.2040 
 185   0.0000       1.257812        34.2268 
 186   0.0000       1.271124        34.5890 
 187   0.0000       1.281040        34.8589 
 188   0.0000       1.301074        35.4040 
 189   0.0000       1.322994        36.0005 
 190   0.0000       1.327463        36.1221 
 191   0.0000       1.335491        36.3406 
 192   0.0000       1.348636        36.6983 
 193   0.0000       1.356189        36.9038 
 194   0.0000       1.366430        37.1825 
 195   0.0000       1.381612        37.5956 
 196   0.0000       1.397321        38.0230 
 197   0.0000       1.409110        38.3438 
 198   0.0000       1.421795        38.6890 
 199   0.0000       1.433503        39.0076 
 200   0.0000       1.443722        39.2857 
 201   0.0000       1.448882        39.4261 
 202   0.0000       1.470474        40.0136 
 203   0.0000       1.488430        40.5022 
 204   0.0000       1.498780        40.7839 
 205   0.0000       1.516940        41.2780 
 206   0.0000       1.531632        41.6778 
 207   0.0000       1.540725        41.9253 
 208   0.0000       1.548636        42.1405 
 209   0.0000       1.554504        42.3002 
 210   0.0000       1.558732        42.4153 
 211   0.0000       1.568442        42.6795 
 212   0.0000       1.579618        42.9836 
 213   0.0000       1.584885        43.1269 
 214   0.0000       1.608984        43.7827 
 215   0.0000       1.622512        44.1508 
 216   0.0000       1.632724        44.4287 
 217   0.0000       1.655006        45.0350 
 218   0.0000       1.673680        45.5432 
 219   0.0000       1.680754        45.7356 
 220   0.0000       1.695220        46.1293 
 221   0.0000       1.700317        46.2680 
 222   0.0000       1.715717        46.6870 
 223   0.0000       1.724548        46.9273 
 224   0.0000       1.740929        47.3731 
 225   0.0000       1.754788        47.7502 
 226   0.0000       1.766913        48.0802 
 227   0.0000       1.770105        48.1670 
 228   0.0000       1.781578        48.4792 
 229   0.0000       1.790628        48.7255 
 230   0.0000       1.792607        48.7793 
 231   0.0000       1.803660        49.0801 
 232   0.0000       1.806759        49.1644 
 233   0.0000       1.826285        49.6957 
 234   0.0000       1.838982        50.0412 
 235   0.0000       1.851908        50.3930 
 236   0.0000       1.863482        50.7079 
 237   0.0000       1.893591        51.5272 
 238   0.0000       1.896298        51.6009 
 239   0.0000       1.909643        51.9640 
 240   0.0000       1.918194        52.1967 
 241   0.0000       1.919072        52.2206 
 242   0.0000       1.928379        52.4739 
 243   0.0000       1.936137        52.6850 
 244   0.0000       1.944507        52.9127 
 245   0.0000       1.953274        53.1513 
 246   0.0000       1.962122        53.3921 
 247   0.0000       1.975635        53.7598 
 248   0.0000       1.986469        54.0546 
 249   0.0000       1.991180        54.1828 
 250   0.0000       2.013101        54.7793 
 251   0.0000       2.023926        55.0738 
 252   0.0000       2.025089        55.1055 
 253   0.0000       2.032709        55.3128 
 254   0.0000       2.047215        55.7075 
 255   0.0000       2.052445        55.8499 
 256   0.0000       2.068132        56.2767 
 257   0.0000       2.071309        56.3632 
 258   0.0000       2.088958        56.8434 
 259   0.0000       2.093854        56.9767 
 260   0.0000       2.103005        57.2257 
 261   0.0000       2.104923        57.2779 
 262   0.0000       2.113985        57.5244 
 263   0.0000       2.128475        57.9187 
 264   0.0000       2.144468        58.3540 
 265   0.0000       2.157781        58.7162 
 266   0.0000       2.171483        59.0891 
 267   0.0000       2.178970        59.2928 
 268   0.0000       2.191199        59.6255 
 269   0.0000       2.210544        60.1519 
 270   0.0000       2.215995        60.3003 
 271   0.0000       2.220531        60.4237 
 272   0.0000       2.228161        60.6313 
 273   0.0000       2.241633        60.9979 
 274   0.0000       2.249242        61.2050 
 275   0.0000       2.258354        61.4529 
 276   0.0000       2.267185        61.6932 
 277   0.0000       2.276604        61.9496 
 278   0.0000       2.280047        62.0432 
 279   0.0000       2.297277        62.5121 
 280   0.0000       2.308793        62.8255 
 281   0.0000       2.321721        63.1772 
 282   0.0000       2.328370        63.3582 
 283   0.0000       2.346264        63.8451 
 284   0.0000       2.348099        63.8950 
 285   0.0000       2.363168        64.3051 
 286   0.0000       2.380466        64.7758 
 287   0.0000       2.381999        64.8175 
 288   0.0000       2.387535        64.9681 
 289   0.0000       2.391725        65.0821 
 290   0.0000       2.409966        65.5785 
 291   0.0000       2.425092        65.9901 
 292   0.0000       2.428158        66.0736 
 293   0.0000       2.437194        66.3194 
 294   0.0000       2.449950        66.6665 
 295   0.0000       2.459359        66.9226 
 296   0.0000       2.465219        67.0820 
 297   0.0000       2.484316        67.6017 
 298   0.0000       2.487606        67.6912 
 299   0.0000       2.495617        67.9092 
 300   0.0000       2.504558        68.1525 
 301   0.0000       2.512517        68.3691 
 302   0.0000       2.525364        68.7186 
 303   0.0000       2.537949        69.0611 
 304   0.0000       2.542202        69.1768 
 305   0.0000       2.560568        69.6766 
 306   0.0000       2.567040        69.8527 
 307   0.0000       2.581143        70.2365 
 308   0.0000       2.598632        70.7124 
 309   0.0000       2.601039        70.7779 
 310   0.0000       2.604206        70.8640 
 311   0.0000       2.615049        71.1591 
 312   0.0000       2.623516        71.3895 
 313   0.0000       2.643498        71.9332 
 314   0.0000       2.654562        72.2343 
 315   0.0000       2.668431        72.6117 
 316   0.0000       2.673810        72.7581 
 317   0.0000       2.692513        73.2670 
 318   0.0000       2.713880        73.8484 
 319   0.0000       2.728475        74.2456 
 320   0.0000       2.735522        74.4373 
 321   0.0000       2.738822        74.5271 
 322   0.0000       2.762907        75.1825 
 323   0.0000       2.777802        75.5878 
 324   0.0000       2.789745        75.9128 
 325   0.0000       2.804926        76.3259 
 326   0.0000       2.814756        76.5934 
 327   0.0000       2.833507        77.1036 
 328   0.0000       2.842796        77.3564 
 329   0.0000       2.867707        78.0343 
 330   0.0000       2.873606        78.1948 
 331   0.0000       2.911055        79.2138 
 332   0.0000       2.931345        79.7660 
 333   0.0000       2.939293        79.9822 
 334   0.0000       2.952616        80.3448 
 335   0.0000       2.958881        80.5153 
 336   0.0000       2.974087        80.9290 
 337   0.0000       2.993340        81.4529 
 338   0.0000       3.005529        81.7846 
 339   0.0000       3.030869        82.4741 
 340   0.0000       3.035198        82.5919 
 341   0.0000       3.048931        82.9656 
 342   0.0000       3.082297        83.8736 
 343   0.0000       3.105304        84.4996 
 344   0.0000       3.114432        84.7480 
 345   0.0000       3.134503        85.2942 
 346   0.0000       3.149625        85.7056 
 347   0.0000       3.164871        86.1205 
 348   0.0000       3.167963        86.2047 
 349   0.0000       3.200985        87.1032 
 350   0.0000       3.210855        87.3718 
 351   0.0000       3.221668        87.6661 
 352   0.0000       3.238355        88.1201 
 353   0.0000       3.252115        88.4945 
 354   0.0000       3.260275        88.7166 
 355   0.0000       3.274290        89.0979 
 356   0.0000       3.282900        89.3323 
 357   0.0000       3.302178        89.8568 
 358   0.0000       3.321236        90.3754 
 359   0.0000       3.331107        90.6440 
 360   0.0000       3.334661        90.7407 
 361   0.0000       3.353255        91.2467 
 362   0.0000       3.358566        91.3912 
 363   0.0000       3.381884        92.0257 
 364   0.0000       3.406824        92.7044 
 365   0.0000       3.437038        93.5266 
 366   0.0000       3.445401        93.7541 
 367   0.0000       3.487179        94.8910 
 368   0.0000       3.489782        94.9618 
 369   0.0000       3.500732        95.2598 
 370   0.0000       3.540141        96.3321 
 371   0.0000       3.572705        97.2183 
 372   0.0000       3.588159        97.6388 
 373   0.0000       3.607889        98.1756 
 374   0.0000       3.629314        98.7587 
 375   0.0000       3.637276        98.9753 
 376   0.0000       3.650102        99.3243 
 377   0.0000       3.681576       100.1808 
 378   0.0000       3.709951       100.9529 
 379   0.0000       3.779905       102.8564 
 380   0.0000       3.787423       103.0610 
 381   0.0000       3.795264       103.2744 
 382   0.0000       3.813846       103.7800 
 383   0.0000       3.837491       104.4234 
 384   0.0000       3.857944       104.9800 
 385   0.0000       3.879826       105.5754 
 386   0.0000       3.881865       105.6309 
 387   0.0000       3.893760       105.9546 
 388   0.0000       3.906265       106.2949 
 389   0.0000       3.924770       106.7984 
 390   0.0000       3.956062       107.6499 
 391   0.0000       3.968691       107.9936 
 392   0.0000       3.995609       108.7261 
 393   0.0000       4.005694       109.0005 
 394   0.0000       4.023921       109.4965 
 395   0.0000       4.056215       110.3752 
 396   0.0000       4.070184       110.7553 
 397   0.0000       4.071593       110.7937 
 398   0.0000       4.094259       111.4104 
 399   0.0000       4.120189       112.1161 
 400   0.0000       4.129133       112.3594 
 401   0.0000       4.172829       113.5484 
 402   0.0000       4.186430       113.9185 
 403   0.0000       4.231024       115.1320 
 404   0.0000       4.248892       115.6182 
 405   0.0000       4.261078       115.9498 
 406   0.0000       4.268075       116.1402 
 407   0.0000       4.297537       116.9419 
 408   0.0000       4.325426       117.7008 
 409   0.0000       4.329339       117.8073 
 410   0.0000       4.343750       118.1994 
 411   0.0000       4.351243       118.4034 
 412   0.0000       4.366355       118.8146 
 413   0.0000       4.389847       119.4538 
 414   0.0000       4.416398       120.1763 
 415   0.0000       4.432673       120.6192 
 416   0.0000       4.452177       121.1499 
 417   0.0000       4.473268       121.7238 
 418   0.0000       4.525327       123.1404 
 419   0.0000       4.567475       124.2873 
 420   0.0000       4.592741       124.9748 
 421   0.0000       4.610151       125.4486 
 422   0.0000       4.619206       125.6950 
 423   0.0000       4.635477       126.1377 
 424   0.0000       4.642955       126.3412 
 425   0.0000       4.659453       126.7902 
 426   0.0000       4.670168       127.0817 
 427   0.0000       4.693175       127.7078 
 428   0.0000       4.702192       127.9531 
 429   0.0000       4.749974       129.2534 
 430   0.0000       4.779145       130.0472 
 431   0.0000       4.819800       131.1534 
 432   0.0000       4.834263       131.5470 
 433   0.0000       4.852867       132.0532 
 434   0.0000       4.862842       132.3247 
 435   0.0000       4.871659       132.5646 
 436   0.0000       4.880588       132.8076 
 437   0.0000       4.890988       133.0905 
 438   0.0000       4.931127       134.1828 
 439   0.0000       4.951749       134.7439 
 440   0.0000       4.961534       135.0102 
 441   0.0000       4.974480       135.3625 
 442   0.0000       5.000821       136.0793 
 443   0.0000       5.030064       136.8750 
 444   0.0000       5.037396       137.0745 
 445   0.0000       5.048371       137.3732 
 446   0.0000       5.057844       137.6309 
 447   0.0000       5.081008       138.2613 
 448   0.0000       5.089349       138.4882 
 449   0.0000       5.124511       139.4450 
 450   0.0000       5.138097       139.8147 
 451   0.0000       5.163946       140.5181 
 452   0.0000       5.169683       140.6742 
 453   0.0000       5.191716       141.2738 
 454   0.0000       5.197244       141.4242 
 455   0.0000       5.228618       142.2779 
 456   0.0000       5.233318       142.4058 
 457   0.0000       5.244216       142.7024 
 458   0.0000       5.258023       143.0781 
 459   0.0000       5.277132       143.5981 
 460   0.0000       5.291521       143.9896 
 461   0.0000       5.327043       144.9562 
 462   0.0000       5.337358       145.2369 
 463   0.0000       5.348736       145.5465 
 464   0.0000       5.355074       145.7190 
 465   0.0000       5.361296       145.8883 
 466   0.0000       5.396262       146.8397 
 467   0.0000       5.403671       147.0414 
 468   0.0000       5.426540       147.6637 
 469   0.0000       5.449622       148.2918 
 470   0.0000       5.481104       149.1484 
 471   0.0000       5.488617       149.3529 
 472   0.0000       5.516060       150.0996 
 473   0.0000       5.536193       150.6475 
 474   0.0000       5.542654       150.8233 
 475   0.0000       5.568308       151.5214 
 476   0.0000       5.577864       151.7814 
 477   0.0000       5.618953       152.8995 
 478   0.0000       5.626589       153.1073 
 479   0.0000       5.640278       153.4798 
 480   0.0000       5.642925       153.5518 
 481   0.0000       5.669313       154.2698 
 482   0.0000       5.683363       154.6522 
 483   0.0000       5.685040       154.6978 
 484   0.0000       5.691588       154.8760 
 485   0.0000       5.698083       155.0527 
 486   0.0000       5.713028       155.4594 
 487   0.0000       5.734501       156.0437 
 488   0.0000       5.742821       156.2701 
 489   0.0000       5.751690       156.5115 
 490   0.0000       5.767112       156.9311 
 491   0.0000       5.775990       157.1727 
 492   0.0000       5.788171       157.5041 
 493   0.0000       5.803655       157.9255 
 494   0.0000       5.808705       158.0629 
 495   0.0000       5.824323       158.4879 
 496   0.0000       5.835510       158.7923 
 497   0.0000       5.850231       159.1929 
 498   0.0000       5.861678       159.5044 
 499   0.0000       5.868662       159.6944 
 500   0.0000       5.885648       160.1566 
 501   0.0000       5.892421       160.3409 
 502   0.0000       5.901202       160.5799 
 503   0.0000       5.913616       160.9177 
 504   0.0000       5.930759       161.3842 
 505   0.0000       5.941095       161.6654 
 506   0.0000       5.954179       162.0214 
 507   0.0000       5.970666       162.4701 
 508   0.0000       5.971209       162.4849 
 509   0.0000       5.998030       163.2147 
 510   0.0000       6.003833       163.3726 
 511   0.0000       6.029140       164.0612 
 512   0.0000       6.039283       164.3372 
 513   0.0000       6.046912       164.5448 
 514   0.0000       6.052702       164.7024 
 515   0.0000       6.067439       165.1034 
 516   0.0000       6.080408       165.4563 
 517   0.0000       6.086268       165.6158 
 518   0.0000       6.093749       165.8193 
 519   0.0000       6.111364       166.2987 
 520   0.0000       6.118112       166.4823 
 521   0.0000       6.120771       166.5546 
 522   0.0000       6.140193       167.0832 
 523   0.0000       6.141101       167.1079 
 524   0.0000       6.199901       168.7079 
 525   0.0000       6.203351       168.8018 
 526   0.0000       6.209292       168.9634 
 527   0.0000       6.229369       169.5097 
 528   0.0000       6.246107       169.9652 
 529   0.0000       6.261532       170.3850 
 530   0.0000       6.269436       170.6000 
 531   0.0000       6.287748       171.0983 
 532   0.0000       6.317317       171.9029 
 533   0.0000       6.333472       172.3425 
 534   0.0000       6.350322       172.8011 
 535   0.0000       6.359920       173.0622 
 536   0.0000       6.363702       173.1651 
 537   0.0000       6.387870       173.8228 
 538   0.0000       6.397875       174.0950 
 539   0.0000       6.399122       174.1290 
 540   0.0000       6.429076       174.9440 
 541   0.0000       6.435331       175.1143 
 542   0.0000       6.443549       175.3379 
 543   0.0000       6.450183       175.5184 
 544   0.0000       6.455396       175.6603 
 545   0.0000       6.479095       176.3051 
 546   0.0000       6.487769       176.5412 
 547   0.0000       6.500348       176.8835 
 548   0.0000       6.510670       177.1643 
 549   0.0000       6.519747       177.4113 
 550   0.0000       6.533513       177.7859 
 551   0.0000       6.542149       178.0209 
 552   0.0000       6.550239       178.2411 
 553   0.0000       6.580351       179.0605 
 554   0.0000       6.589344       179.3052 
 555   0.0000       6.622162       180.1982 
 556   0.0000       6.630244       180.4181 
 557   0.0000       6.649655       180.9463 
 558   0.0000       6.659772       181.2216 
 559   0.0000       6.670413       181.5112 
 560   0.0000       6.702719       182.3903 
 561   0.0000       6.714888       182.7214 
 562   0.0000       6.732557       183.2022 
 563   0.0000       6.739930       183.4028 
 564   0.0000       6.748327       183.6313 
 565   0.0000       6.759819       183.9440 
 566   0.0000       6.765166       184.0895 
 567   0.0000       6.779336       184.4751 
 568   0.0000       6.808558       185.2703 
 569   0.0000       6.838829       186.0940 
 570   0.0000       6.843272       186.2149 
 571   0.0000       6.851170       186.4298 
 572   0.0000       6.881237       187.2480 
 573   0.0000       6.905157       187.8989 
 574   0.0000       6.938459       188.8051 
 575   0.0000       6.955270       189.2625 
 576   0.0000       6.974198       189.7776 
 577   0.0000       6.985586       190.0875 
 578   0.0000       7.010386       190.7623 
 579   0.0000       7.026231       191.1935 
 580   0.0000       7.039555       191.5560 
 581   0.0000       7.053452       191.9342 
 582   0.0000       7.099414       193.1849 
 583   0.0000       7.127092       193.9380 
 584   0.0000       7.147176       194.4845 
 585   0.0000       7.155521       194.7116 
 586   0.0000       7.181643       195.4224 
 587   0.0000       7.195232       195.7922 
 588   0.0000       7.211533       196.2358 
 589   0.0000       7.217039       196.3856 
 590   0.0000       7.233550       196.8349 
 591   0.0000       7.240701       197.0295 
 592   0.0000       7.249926       197.2805 
 593   0.0000       7.265228       197.6969 
 594   0.0000       7.270532       197.8412 
 595   0.0000       7.304678       198.7704 
 596   0.0000       7.312585       198.9856 
 597   0.0000       7.322641       199.2592 
 598   0.0000       7.329474       199.4451 
 599   0.0000       7.338127       199.6806 
 600   0.0000       7.349340       199.9857 
 601   0.0000       7.356944       200.1926 
 602   0.0000       7.382346       200.8838 
 603   0.0000       7.432438       202.2469 
 604   0.0000       7.462932       203.0767 
 605   0.0000       7.470704       203.2882 
 606   0.0000       7.486920       203.7295 
 607   0.0000       7.497653       204.0215 
 608   0.0000       7.528265       204.8545 
 609   0.0000       7.536197       205.0703 
 610   0.0000       7.551858       205.4965 
 611   0.0000       7.591283       206.5693 
 612   0.0000       7.622745       207.4254 
 613   0.0000       7.640045       207.8962 
 614   0.0000       7.652373       208.2317 
 615   0.0000       7.673562       208.8082 
 616   0.0000       7.684099       209.0950 
 617   0.0000       7.695735       209.4116 
 618   0.0000       7.712802       209.8760 
 619   0.0000       7.728100       210.2923 
 620   0.0000       7.744494       210.7384 
 621   0.0000       7.771596       211.4759 
 622   0.0000       7.773484       211.5273 
 623   0.0000       7.783351       211.7958 
 624   0.0000       7.808472       212.4793 
 625   0.0000       7.841536       213.3790 
 626   0.0000       7.882765       214.5009 
 627   0.0000       7.910422       215.2535 
 628   0.0000       7.919643       215.5044 
 629   0.0000       7.929313       215.7676 
 630   0.0000       7.936448       215.9617 
 631   0.0000       7.945544       216.2093 
 632   0.0000       7.955427       216.4782 
 633   0.0000       7.975555       217.0259 
 634   0.0000       7.992795       217.4950 
 635   0.0000       8.012866       218.0412 
 636   0.0000       8.025804       218.3932 
 637   0.0000       8.033413       218.6003 
 638   0.0000       8.046883       218.9668 
 639   0.0000       8.054356       219.1702 
 640   0.0000       8.058280       219.2770 
 641   0.0000       8.081633       219.9124 
 642   0.0000       8.087923       220.0836 
 643   0.0000       8.100212       220.4180 
 644   0.0000       8.115722       220.8400 
 645   0.0000       8.124721       221.0849 
 646   0.0000       8.127873       221.1707 
 647   0.0000       8.162657       222.1172 
 648   0.0000       8.173901       222.4232 
 649   0.0000       8.179935       222.5873 
 650   0.0000       8.189397       222.8448 
 651   0.0000       8.198615       223.0956 
 652   0.0000       8.207653       223.3416 
 653   0.0000       8.235297       224.0938 
 654   0.0000       8.253378       224.5858 
 655   0.0000       8.261571       224.8088 
 656   0.0000       8.274478       225.1600 
 657   0.0000       8.294373       225.7014 
 658   0.0000       8.306338       226.0270 
 659   0.0000       8.332944       226.7509 
 660   0.0000       8.336231       226.8404 
 661   0.0000       8.348085       227.1629 
 662   0.0000       8.407112       228.7691 
 663   0.0000       8.419906       229.1173 
 664   0.0000       8.432870       229.4701 
 665   0.0000       8.460836       230.2311 
 666   0.0000       8.464701       230.3362 
 667   0.0000       8.470719       230.5000 
 668   0.0000       8.479369       230.7354 
 669   0.0000       8.481766       230.8006 
 670   0.0000       8.493370       231.1164 
 671   0.0000       8.516831       231.7548 
 672   0.0000       8.540389       232.3958 
 673   0.0000       8.550140       232.6611 
 674   0.0000       8.576700       233.3839 
 675   0.0000       8.600619       234.0347 
 676   0.0000       8.615655       234.4439 
 677   0.0000       8.632250       234.8955 
 678   0.0000       8.652435       235.4447 
 679   0.0000       8.669159       235.8998 
 680   0.0000       8.688347       236.4219 
 681   0.0000       8.697999       236.6846 
 682   0.0000       8.721188       237.3156 
 683   0.0000       8.751658       238.1447 
 684   0.0000       8.772902       238.7228 
 685   0.0000       8.835462       240.4251 
 686   0.0000       8.876834       241.5509 
 687   0.0000       8.943810       243.3734 
 688   0.0000       9.025847       245.6058 
 689   0.0000       9.045159       246.1313 
 690   0.0000       9.077386       247.0082 
 691   0.0000       9.143615       248.8104 
 692   0.0000       9.167509       249.4606 
 693   0.0000       9.177006       249.7190 
 694   0.0000       9.240249       251.4399 
 695   0.0000       9.272170       252.3086 
 696   0.0000       9.327164       253.8050 
 697   0.0000       9.363973       254.8067 
 698   0.0000       9.421653       256.3762 
 699   0.0000       9.427242       256.5283 
 700   0.0000       9.465427       257.5674 
 701   0.0000       9.491491       258.2766 
 702   0.0000       9.509475       258.7660 
 703   0.0000       9.523133       259.1376 
 704   0.0000       9.536877       259.5116 
 705   0.0000       9.588882       260.9267 
 706   0.0000       9.590137       260.9609 
 707   0.0000       9.634361       262.1643 
 708   0.0000       9.661781       262.9104 
 709   0.0000       9.704385       264.0697 
 710   0.0000       9.743115       265.1236 
 711   0.0000       9.778478       266.0859 
 712   0.0000       9.801608       266.7153 
 713   0.0000       9.826079       267.3812 
 714   0.0000       9.845959       267.9222 
 715   0.0000       9.864034       268.4140 
 716   0.0000       9.876979       268.7663 
 717   0.0000       9.930005       270.2092 
 718   0.0000       9.987035       271.7610 
 719   0.0000      10.020895       272.6824 
 720   0.0000      10.032801       273.0064 
 721   0.0000      10.051123       273.5050 
 722   0.0000      10.097235       274.7597 
 723   0.0000      10.115475       275.2561 
 724   0.0000      10.179262       276.9918 
 725   0.0000      10.198154       277.5059 
 726   0.0000      10.211077       277.8575 
 727   0.0000      10.256745       279.1002 
 728   0.0000      10.317987       280.7667 
 729   0.0000      10.448746       284.3248 
 730   0.0000      10.463519       284.7268 
 731   0.0000      10.497312       285.6464 
 732   0.0000      10.520103       286.2666 
 733   0.0000      10.534878       286.6686 
 734   0.0000      10.610342       288.7221 
 735   0.0000      10.671961       290.3988 
 736   0.0000      10.703424       291.2550 
 737   0.0000      10.802945       293.9631 
 738   0.0000      10.804039       293.9929 
 739   0.0000      10.987327       298.9804 
 740   0.0000      11.042531       300.4825 
 741   0.0000      11.075251       301.3729 
 742   0.0000      11.130987       302.8896 
 743   0.0000      11.156978       303.5968 
 744   0.0000      11.199376       304.7505 
 745   0.0000      11.251259       306.1623 
 746   0.0000      11.390247       309.9444 
 747   0.0000      11.423623       310.8526 
 748   0.0000      11.462527       311.9112 
 749   0.0000      11.491293       312.6940 
 750   0.0000      11.507622       313.1383 
 751   0.0000      11.528628       313.7099 
 752   0.0000      11.578399       315.0643 
 753   0.0000      11.632261       316.5299 
 754   0.0000      11.647227       316.9372 
 755   0.0000      11.820641       321.6560 
 756   0.0000      11.859028       322.7006 
 757   0.0000      11.894476       323.6651 
 758   0.0000      11.900634       323.8327 
 759   0.0000      11.947336       325.1035 
 760   0.0000      11.988490       326.2234 
 761   0.0000      12.016338       326.9812 
 762   0.0000      12.067004       328.3599 
 763   0.0000      12.166375       331.0639 
 764   0.0000      12.362085       336.3894 
 765   0.0000      12.385979       337.0396 
 766   0.0000      12.422517       338.0339 
 767   0.0000      12.426171       338.1333 
 768   0.0000      12.501150       340.1736 
 769   0.0000      12.520497       340.7000 
 770   0.0000      12.550036       341.5038 
 771   0.0000      12.565108       341.9140 
 772   0.0000      12.571458       342.0868 
 773   0.0000      12.702472       345.6518 
 774   0.0000      12.927494       351.7750 
 775   0.0000      12.963096       352.7438 
 776   0.0000      12.976334       353.1040 
 777   0.0000      13.006715       353.9307 
 778   0.0000      13.600125       370.0782 
 779   0.0000      13.603200       370.1619 
 780   0.0000      13.633886       370.9969 
 781   0.0000      13.784223       375.0878 
 782   0.0000      13.848845       376.8462 
 783   0.0000      13.859169       377.1272 
 784   0.0000      14.202514       386.4701 
 785   0.0000      14.243760       387.5924 
 786   0.0000      14.346825       390.3970 
 787   0.0000      16.412700       446.6123 
 788   0.0000      16.462576       447.9695 
 789   0.0000      16.481988       448.4977 
 790   0.0000      27.710544       754.0422 
 791   0.0000      28.203364       767.4526 
 792   0.0000      28.296194       769.9786 
 793   0.0000      28.400358       772.8130 
 794   0.0000      28.656496       779.7829 
 795   0.0000      28.768248       782.8238 
 796   0.0000      29.080956       791.3330 
 797   0.0000      48.147068      1310.1483 
 798   0.0000      48.259063      1313.1959 
 799   0.0000      48.342553      1315.4677 
 800   0.0000     146.791152      3994.3903 
 801   0.0000     147.269861      4007.4166 
 802   0.0000     147.342097      4009.3823 
 803   0.0000     147.455664      4012.4726 
 804   0.0000     147.665476      4018.1819 
 805   0.0000     147.772212      4021.0863 
 806   0.0000     148.112420      4030.3439 
 807   0.0000     253.177290      6889.3043 
 808   0.0000     253.310831      6892.9381 
 809   0.0000     253.412720      6895.7107 

                 SPIN DOWN ORBITALS
  NO   OCC          E(Eh)            E(eV) 
   0   1.0000     -19.327776      -525.9355 
   1   1.0000     -19.322646      -525.7959 
   2   1.0000     -19.315583      -525.6037 
   3   1.0000     -10.521974      -286.3175 
   4   1.0000     -10.419948      -283.5412 
   5   1.0000     -10.408560      -283.2313 
   6   1.0000     -10.398997      -282.9711 
   7   1.0000     -10.396458      -282.9020 
   8   1.0000     -10.384895      -282.5874 
   9   1.0000     -10.382757      -282.5292 
  10   1.0000      -1.290552       -35.1177 
  11   1.0000      -1.192692       -32.4548 
  12   1.0000      -1.185044       -32.2467 
  13   1.0000      -1.068531       -29.0762 
  14   1.0000      -0.968544       -26.3554 
  15   1.0000      -0.951958       -25.9041 
  16   1.0000      -0.857386       -23.3307 
  17   1.0000      -0.815994       -22.2043 
  18   1.0000      -0.800230       -21.7754 
  19   1.0000      -0.760147       -20.6846 
  20   1.0000      -0.717107       -19.5135 
  21   1.0000      -0.681265       -18.5382 
  22   1.0000      -0.676270       -18.4022 
  23   1.0000      -0.653596       -17.7853 
  24   1.0000      -0.640147       -17.4193 
  25   1.0000      -0.622224       -16.9316 
  26   1.0000      -0.604661       -16.4537 
  27   1.0000      -0.600352       -16.3364 
  28   1.0000      -0.570944       -15.5362 
  29   1.0000      -0.563389       -15.3306 
  30   1.0000      -0.547635       -14.9019 
  31   1.0000      -0.525126       -14.2894 
  32   1.0000      -0.515291       -14.0218 
  33   1.0000      -0.479204       -13.0398 
  34   1.0000      -0.466228       -12.6867 
  35   1.0000      -0.457458       -12.4481 
  36   0.0000      -0.399710       -10.8767 
  37   0.0000      -0.210833        -5.7370 
  38   0.0000      -0.206594        -5.6217 
  39   0.0000      -0.138419        -3.7666 
  40   0.0000      -0.115561        -3.1446 
  41   0.0000      -0.100086        -2.7235 
  42   0.0000      -0.092151        -2.5075 
  43   0.0000      -0.088486        -2.4078 
  44   0.0000      -0.076127        -2.0715 
  45   0.0000      -0.063892        -1.7386 
  46   0.0000      -0.059279        -1.6131 
  47   0.0000      -0.046241        -1.2583 
  48   0.0000      -0.030916        -0.8413 
  49   0.0000      -0.024157        -0.6573 
  50   0.0000      -0.001705        -0.0464 
  51   0.0000      -0.000010        -0.0003 
  52   0.0000       0.002708         0.0737 
  53   0.0000       0.013898         0.3782 
  54   0.0000       0.022137         0.6024 
  55   0.0000       0.028010         0.7622 
  56   0.0000       0.037213         1.0126 
  57   0.0000       0.040616         1.1052 
  58   0.0000       0.045796         1.2462 
  59   0.0000       0.051842         1.4107 
  60   0.0000       0.060370         1.6428 
  61   0.0000       0.065812         1.7908 
  62   0.0000       0.074196         2.0190 
  63   0.0000       0.082289         2.2392 
  64   0.0000       0.092663         2.5215 
  65   0.0000       0.100156         2.7254 
  66   0.0000       0.106315         2.8930 
  67   0.0000       0.111269         3.0278 
  68   0.0000       0.127609         3.4724 
  69   0.0000       0.133221         3.6251 
  70   0.0000       0.139290         3.7903 
  71   0.0000       0.140952         3.8355 
  72   0.0000       0.148293         4.0352 
  73   0.0000       0.151144         4.1128 
  74   0.0000       0.166074         4.5191 
  75   0.0000       0.176016         4.7896 
  76   0.0000       0.176292         4.7972 
  77   0.0000       0.181815         4.9474 
  78   0.0000       0.192912         5.2494 
  79   0.0000       0.204564         5.5665 
  80   0.0000       0.214276         5.8307 
  81   0.0000       0.217315         5.9135 
  82   0.0000       0.231503         6.2995 
  83   0.0000       0.236094         6.4244 
  84   0.0000       0.244535         6.6541 
  85   0.0000       0.249595         6.7918 
  86   0.0000       0.261602         7.1185 
  87   0.0000       0.271124         7.3777 
  88   0.0000       0.271299         7.3824 
  89   0.0000       0.280287         7.6270 
  90   0.0000       0.288026         7.8376 
  91   0.0000       0.295901         8.0519 
  92   0.0000       0.311714         8.4822 
  93   0.0000       0.314404         8.5554 
  94   0.0000       0.329568         8.9680 
  95   0.0000       0.335195         9.1211 
  96   0.0000       0.350609         9.5406 
  97   0.0000       0.356974         9.7138 
  98   0.0000       0.358558         9.7569 
  99   0.0000       0.367822        10.0089 
 100   0.0000       0.378237        10.2923 
 101   0.0000       0.390429        10.6241 
 102   0.0000       0.392197        10.6722 
 103   0.0000       0.399993        10.8844 
 104   0.0000       0.407825        11.0975 
 105   0.0000       0.416256        11.3269 
 106   0.0000       0.420655        11.4466 
 107   0.0000       0.453063        12.3285 
 108   0.0000       0.456899        12.4328 
 109   0.0000       0.471739        12.8367 
 110   0.0000       0.476144        12.9565 
 111   0.0000       0.492417        13.3993 
 112   0.0000       0.507776        13.8173 
 113   0.0000       0.511949        13.9308 
 114   0.0000       0.523332        14.2406 
 115   0.0000       0.532016        14.4769 
 116   0.0000       0.543341        14.7851 
 117   0.0000       0.549506        14.9528 
 118   0.0000       0.565387        15.3850 
 119   0.0000       0.570601        15.5269 
 120   0.0000       0.580284        15.7903 
 121   0.0000       0.585406        15.9297 
 122   0.0000       0.588447        16.0125 
 123   0.0000       0.595486        16.2040 
 124   0.0000       0.597885        16.2693 
[...]
      dxz     :     0.035513
      dyz     :     0.026319
      dx2y2   :     0.047587
      dxy     :     0.040840
      f0      :     0.002705  f :     0.039682
      f+1     :     0.008688
      f-1     :     0.002984
      f+2     :     0.007531
      f-2     :     0.006018
      f+3     :     0.007832
      f-3     :     0.003923

SPIN
  0 C s       :     0.004487  s :     0.004487
      pz      :     0.142208  p :     0.212751
      px      :     0.065535
      py      :     0.005009
      dz2     :     0.001437  d :     0.005805
      dxz     :     0.000100
      dyz     :     0.002702
      dx2y2   :     0.001403
      dxy     :     0.000163
      f0      :     0.000134  f :     0.001881
      f+1     :     0.000090
      f-1     :     0.000641
      f+2     :     0.000074
      f-2     :     0.000105
      f+3     :     0.000741
      f-3     :     0.000097
      g0      :     0.000025  g :     0.000061
      g+1     :    -0.000010
      g-1     :    -0.000030
      g+2     :     0.000016
      g-2     :     0.000080
      g+3     :     0.000006
      g-3     :    -0.000019
      g+4     :    -0.000012
      g-4     :     0.000006
  1 C s       :     0.001977  s :     0.001977
      pz      :     0.077432  p :     0.113161
      px      :     0.033512
      py      :     0.002216
      dz2     :     0.005038  d :     0.013981
      dxz     :     0.001911
      dyz     :     0.002722
      dx2y2   :     0.003996
      dxy     :     0.000314
      f0      :    -0.000263  f :     0.005644
      f+1     :     0.001863
      f-1     :     0.002195
      f+2     :    -0.000340
      f-2     :     0.000473
      f+3     :     0.000919
      f-3     :     0.000797
      g0      :     0.000106  g :     0.000431
      g+1     :     0.000066
      g-1     :    -0.000055
      g+2     :     0.000075
      g-2     :     0.000220
      g+3     :     0.000058
      g-3     :    -0.000037
      g+4     :    -0.000001
      g-4     :    -0.000001
  2 C s       :    -0.001488  s :    -0.001488
      pz      :    -0.021790  p :    -0.035920
      px      :    -0.011176
      py      :    -0.002954
      dz2     :     0.011291  d :     0.041161
      dxz     :     0.000960
      dyz     :     0.017211
      dx2y2   :     0.001494
      dxy     :     0.010206
      f0      :     0.002110  f :     0.011365
      f+1     :     0.002251
      f-1     :     0.001667
      f+2     :     0.001250
      f-2     :     0.000669
      f+3     :     0.001252
      f-3     :     0.002166
      g0      :     0.000106  g :     0.000956
      g+1     :     0.000194
      g-1     :     0.000086
      g+2     :     0.000012
      g-2     :     0.000299
      g+3     :     0.000018
      g-3     :     0.000148
      g+4     :     0.000036
      g-4     :     0.000058
  3 C s       :     0.004456  s :     0.004456
      pz      :     0.145107  p :     0.218978
      px      :     0.068502
      py      :     0.005369
      dz2     :     0.000881  d :    -0.000017
      dxz     :    -0.000001
      dyz     :    -0.000625
      dx2y2   :     0.000494
      dxy     :    -0.000766
      f0      :    -0.000068  f :     0.000073
      f+1     :    -0.000261
      f-1     :     0.000124
      f+2     :    -0.000078
      f-2     :    -0.000037
      f+3     :     0.000519
      f-3     :    -0.000126
      g0      :     0.000011  g :    -0.000040
      g+1     :    -0.000022
      g-1     :    -0.000025
      g+2     :     0.000007
      g-2     :     0.000009
      g+3     :     0.000007
      g-3     :    -0.000015
      g+4     :    -0.000013
      g-4     :    -0.000000
  4 C s       :     0.001404  s :     0.001404
      pz      :     0.060826  p :     0.089657
      px      :     0.026873
      py      :     0.001959
      dz2     :     0.004485  d :     0.021719
      dxz     :     0.002138
      dyz     :     0.008421
      dx2y2   :     0.004169
      dxy     :     0.002506
      f0      :    -0.000151  f :     0.005877
      f+1     :     0.001695
      f-1     :     0.002235
      f+2     :    -0.000184
      f-2     :     0.000481
      f+3     :     0.001019
      f-3     :     0.000782
      g0      :     0.000101  g :     0.000482
      g+1     :     0.000055
      g-1     :    -0.000032
      g+2     :     0.000077
      g-2     :     0.000223
      g+3     :     0.000068
      g-3     :    -0.000018
      g+4     :     0.000005
      g-4     :     0.000005
  5 C s       :    -0.001048  s :    -0.001048
      pz      :    -0.010440  p :    -0.018395
      px      :    -0.005932
      py      :    -0.002023
      dz2     :     0.011227  d :     0.035526
      dxz     :     0.000936
      dyz     :     0.013294
      dx2y2   :     0.001531
      dxy     :     0.008539
      f0      :     0.001972  f :     0.010987
      f+1     :     0.002282
      f-1     :     0.001718
      f+2     :     0.000963
      f-2     :     0.000691
      f+3     :     0.001111
      f-3     :     0.002249
      g0      :     0.000107  g :     0.000889
      g+1     :     0.000208
      g-1     :     0.000057
      g+2     :     0.000012
      g-2     :     0.000295
      g+3     :     0.000015
      g-3     :     0.000119
      g+4     :     0.000031
      g-4     :     0.000043
  6 C s       :    -0.001253  s :    -0.001253
      pz      :    -0.001353  p :    -0.008188
      px      :    -0.002236
      py      :    -0.004600
      dz2     :    -0.000243  d :    -0.001084
      dxz     :    -0.000648
      dyz     :    -0.000014
      dx2y2   :    -0.000951
      dxy     :     0.000771
      f0      :     0.003007  f :     0.025371
      f+1     :     0.002150
      f-1     :     0.001667
      f+2     :     0.010208
      f-2     :     0.000214
      f+3     :     0.007855
      f-3     :     0.000269
      g0      :     0.000286  g :     0.001480
      g+1     :     0.000057
      g-1     :     0.000257
      g+2     :     0.000054
      g-2     :     0.000227
      g+3     :     0.000355
      g-3     :     0.000050
      g+4     :     0.000134
      g-4     :     0.000060
  7 H s       :    -0.002812  s :    -0.002812
      pz      :     0.004724  p :     0.007514
      px      :     0.002459
      py      :     0.000331
      dz2     :     0.002201  d :     0.004030
      dxz     :     0.000263
      dyz     :     0.000463
      dx2y2   :     0.000489
      dxy     :     0.000613
      f0      :     0.000033  f :     0.000569
      f+1     :     0.000272
      f-1     :     0.000144
      f+2     :     0.000001
      f-2     :     0.000016
      f+3     :     0.000005
      f-3     :     0.000099
  8 H s       :     0.000676  s :     0.000676
      pz      :    -0.002044  p :    -0.003595
      px      :    -0.001171
      py      :    -0.000381
      dz2     :    -0.000345  d :    -0.001335
      dxz     :    -0.000196
      dyz     :    -0.000316
      dx2y2   :    -0.000348
      dxy     :    -0.000130
      f0      :     0.000004  f :    -0.000198
      f+1     :    -0.000068
      f-1     :    -0.000041
      f+2     :    -0.000014
      f-2     :    -0.000026
      f+3     :    -0.000024
      f-3     :    -0.000030
  9 H s       :    -0.005176  s :    -0.005176
      pz      :     0.010793  p :     0.017751
      px      :     0.005019
      py      :     0.001939
      dz2     :     0.000084  d :     0.007471
      dxz     :     0.000110
      dyz     :     0.004644
      dx2y2   :     0.000468
      dxy     :     0.002166
      f0      :     0.000245  f :     0.001044
      f+1     :     0.000015
      f-1     :     0.000025
      f+2     :     0.000390
      f-2     :     0.000033
      f+3     :     0.000279
      f-3     :     0.000058
 10 H s       :    -0.002200  s :    -0.002200
      pz      :     0.004540  p :     0.006885
      px      :     0.002187
      py      :     0.000157
      dz2     :     0.001844  d :     0.003003
      dxz     :     0.000288
      dyz     :     0.000176
      dx2y2   :     0.000395
      dxy     :     0.000300
      f0      :     0.000023  f :     0.000414
      f+1     :     0.000230
      f-1     :     0.000089
      f+2     :    -0.000004
      f-2     :     0.000011
      f+3     :     0.000002
      f-3     :     0.000063
 11 H s       :     0.000206  s :     0.000206
      pz      :    -0.001202  p :    -0.002199
      px      :    -0.000673
      py      :    -0.000325
      dz2     :    -0.000064  d :    -0.000710
      dxz     :    -0.000111
      dyz     :    -0.000257
      dx2y2   :    -0.000164
      dxy     :    -0.000113
      f0      :     0.000003  f :    -0.000104
      f+1     :    -0.000019
      f-1     :    -0.000025
      f+2     :    -0.000013
      f-2     :    -0.000018
      f+3     :    -0.000009
      f-3     :    -0.000022
 12 O s       :     0.001116  s :     0.001116
      pz      :     0.005475  p :     0.080577
      px      :     0.011495
      py      :     0.063606
      dz2     :    -0.000116  d :     0.000457
      dxz     :    -0.000067
      dyz     :    -0.000095
      dx2y2   :     0.000752
      dxy     :    -0.000017
      f0      :     0.000036  f :     0.000024
      f+1     :    -0.000006
      f-1     :    -0.000030
      f+2     :    -0.000007
      f-2     :     0.000018
      f+3     :     0.000041
      f-3     :    -0.000029
      g0      :     0.000006  g :     0.000008
      g+1     :     0.000000
      g-1     :    -0.000001
      g+2     :     0.000001
      g-2     :    -0.000000
      g+3     :     0.000002
      g-3     :    -0.000000
      g+4     :    -0.000000
      g-4     :    -0.000000
 13 H s       :    -0.001474  s :    -0.001474
      pz      :     0.001076  p :     0.002185
      px      :     0.000660
      py      :     0.000449
      dz2     :     0.002042  d :     0.004807
      dxz     :     0.000587
      dyz     :     0.001355
      dx2y2   :     0.000788
      dxy     :     0.000034
      f0      :     0.000764  f :     0.001290
      f+1     :     0.000105
      f-1     :     0.000138
      f+2     :     0.000201
      f-2     :     0.000059
      f+3     :     0.000012
      f-3     :     0.000012
 14 O s       :     0.000465  s :     0.000465
      pz      :     0.033248  p :     0.042020
      px      :     0.007726
      py      :     0.001046
      dz2     :     0.000050  d :    -0.000100
      dxz     :     0.000128
      dyz     :    -0.000092
      dx2y2   :    -0.000044
      dxy     :    -0.000143
      f0      :     0.000019  f :    -0.000026
      f+1     :     0.000024
      f-1     :    -0.000012
      f+2     :    -0.000004
      f-2     :    -0.000005
      f+3     :    -0.000021
      f-3     :    -0.000028
      g0      :    -0.000000  g :     0.000002
      g+1     :    -0.000000
      g-1     :     0.000002
      g+2     :    -0.000000
      g-2     :    -0.000000
      g+3     :    -0.000001
      g-3     :     0.000002
      g+4     :    -0.000001
      g-4     :     0.000001
 15 H s       :    -0.001447  s :    -0.001447
      pz      :     0.001318  p :     0.001580
      px      :     0.000134
      py      :     0.000128
      dz2     :     0.000084  d :     0.002471
      dxz     :     0.000009
      dyz     :     0.001874
      dx2y2   :     0.000061
      dxy     :     0.000443
      f0      :     0.000186  f :     0.000658
      f+1     :     0.000004
      f-1     :     0.000010
      f+2     :     0.000328
      f-2     :    -0.000000
      f+3     :     0.000118
      f-3     :     0.000012
 16 O s       :     0.000852  s :     0.000852
      pz      :     0.001249  p :     0.064908
      px      :     0.011759
      py      :     0.051899
      dz2     :     0.000014  d :     0.000138
      dxz     :    -0.000138
      dyz     :     0.000006
      dx2y2   :     0.000301
      dxy     :    -0.000044
      f0      :    -0.000020  f :    -0.000005
      f+1     :     0.000015
      f-1     :    -0.000009
      f+2     :    -0.000012
      f-2     :    -0.000022
      f+3     :     0.000052
      f-3     :    -0.000009
      g0      :    -0.000001  g :     0.000005
      g+1     :     0.000001
      g-1     :    -0.000000
      g+2     :     0.000002
      g-2     :    -0.000000
      g+3     :     0.000003
      g-3     :    -0.000000
      g+4     :     0.000001
      g-4     :     0.000000
 17 H s       :    -0.001333  s :    -0.001333
      pz      :     0.000021  p :     0.001528
      px      :     0.001220
      py      :     0.000287
      dz2     :     0.000038  d :     0.003899
      dxz     :     0.000310
      dyz     :     0.000331
      dx2y2   :     0.002730
      dxy     :     0.000491
      f0      :     0.000014  f :     0.001038
      f+1     :     0.000012
      f-1     :     0.000003
      f+2     :     0.000446
      f-2     :     0.000083
      f+3     :     0.000473
      f-3     :     0.000007


                      *****************************
                      * MAYER POPULATION ANALYSIS *
                      *****************************

  NA   - Mulliken gross atomic population
  ZA   - Total nuclear charge
  QA   - Mulliken gross atomic charge
  VA   - Mayer's total valence
  BVA  - Mayer's bonded valence
  FA   - Mayer's free valence

  ATOM       NA         ZA         QA         VA         BVA        FA
  0 C      5.8267     6.0000     0.1733     3.5508     3.4630     0.0879
  1 C      6.0372     6.0000    -0.0372     3.6584     3.6337     0.0246
  2 C      6.0485     6.0000    -0.0485     3.7848     3.7810     0.0037
  3 C      5.9490     6.0000     0.0510     3.7284     3.6419     0.0865
  4 C      6.0105     6.0000    -0.0105     3.7712     3.7547     0.0164
  5 C      6.0667     6.0000    -0.0667     3.6462     3.6443     0.0019
  6 C      5.4732     6.0000     0.5268     4.1083     4.1082     0.0002
  7 H      0.8430     1.0000     0.1570     0.9803     0.9803     0.0000
  8 H      0.8828     1.0000     0.1172     0.9912     0.9912     0.0000
  9 H      0.8718     1.0000     0.1282     0.9801     0.9798     0.0003
 10 H      0.8764     1.0000     0.1236     0.9863     0.9863     0.0001
 11 H      0.8736     1.0000     0.1264     1.0134     1.0134     0.0000
 12 O      8.2967     8.0000    -0.2967     2.2259     2.2165     0.0094
 13 H      0.7597     1.0000     0.2403     1.0114     1.0114     0.0000
 14 O      8.3736     8.0000    -0.3736     2.1643     2.1617     0.0026
 15 H      0.7422     1.0000     0.2578     1.0074     1.0074     0.0000
 16 O      8.3142     8.0000    -0.3142     2.2002     2.1941     0.0061
 17 H      0.7542     1.0000     0.2458     1.0050     1.0049     0.0000

  Mayer bond orders larger than 0.100000
B(  0-C ,  1-C ) :   1.0747 B(  0-C ,  5-C ) :   1.1615 B(  0-C ,  6-C ) :   0.8660 
B(  1-C ,  2-C ) :   1.3818 B(  1-C ,  7-H ) :   0.9420 B(  2-C ,  3-C ) :   1.2515 
B(  2-C ,  8-H ) :   0.9546 B(  3-C ,  4-C ) :   1.1617 B(  3-C ,  9-H ) :   0.9478 
B(  4-C ,  5-C ) :   1.3915 B(  4-C , 10-H ) :   0.9514 B(  5-C , 11-H ) :   0.9447 
B(  6-C , 12-O ) :   1.0320 B(  6-C , 14-O ) :   1.1105 B(  6-C , 16-O ) :   1.0364 
B( 12-O , 13-H ) :   0.9597 B( 14-O , 15-H ) :   0.9406 B( 16-O , 17-H ) :   0.9551 


-------
TIMINGS
-------

Total SCF time: 0 days 0 hours 25 min 27 sec 

Total time                  ....    1527.051 sec
Sum of individual times     ....    1519.364 sec  ( 99.5%)

Fock matrix formation       ....    1497.322 sec  ( 98.1%)
  Split-RI-J                ....      84.383 sec  (  5.6% of F)
  Chain of spheres X        ....    1296.043 sec  ( 86.6% of F)
  XC integration            ....     116.308 sec  (  7.8% of F)
    Basis function eval.    ....      12.341 sec  ( 10.6% of XC)
    Density eval.           ....      53.246 sec  ( 45.8% of XC)
    XC-Functional eval.     ....       1.027 sec  (  0.9% of XC)
    XC-Potential eval.      ....      48.231 sec  ( 41.5% of XC)
Diagonalization             ....       0.684 sec  (  0.0%)
Density matrix formation    ....       0.240 sec  (  0.0%)
Population analysis         ....       1.062 sec  (  0.1%)
Initial guess               ....       1.142 sec  (  0.1%)
Orbital Transformation      ....       0.000 sec  (  0.0%)
Orbital Orthonormalization  ....       0.938 sec  (  0.1%)
DIIS solution               ....       0.208 sec  (  0.0%)
SOSCF solution              ....       2.081 sec  (  0.1%)
Grid generation             ....      16.625 sec  (  1.1%)

Maximum memory used throughout the entire SCF-calculation: 975.7 MB


-------------------------------------------------------------------------------
                          DFT DISPERSION CORRECTION                            
                                                                               
                                 DFTD4 V2.5                                    
-------------------------------------------------------------------------------
The B3LYP functional is recognized
Active option DFTDOPT                   ...         5   

Starting D4
-------------------------   ----------------
Dispersion correction           -0.027685181
-------------------------   ----------------


-------------------------   --------------------
FINAL SINGLE POINT ENERGY      -496.899127294476
-------------------------   --------------------


                            ***************************************
                            *     ORCA property calculations      *
                            ***************************************

                                    ---------------------
                                    Active property flags
                                    ---------------------
   (+) Dipole Moment


------------------------------------------------------------------------------
                       ORCA ELECTRIC PROPERTIES CALCULATION
------------------------------------------------------------------------------

Dipole Moment Calculation                       ... on
Quadrupole Moment Calculation                   ... off
Polarizability Calculation                      ... off
GBWName                                         ... kation.gbw
Electron density                                ... kation.scfp
The origin for moment calculation is the CENTER OF MASS  = (-7.368422,  1.933434 -0.160237)

-------------
DIPOLE MOMENT
-------------
                                X             Y             Z
Electronic contribution:     -0.05855       1.66211      -0.20742
Nuclear contribution   :      0.31644      -3.51876       0.56972
                        -----------------------------------------
Total Dipole Moment    :      0.25788      -1.85665       0.36230
                        -----------------------------------------
Magnitude (a.u.)       :      1.90917
Magnitude (Debye)      :      4.85272



--------------------
Rotational spectrum 
--------------------
 
Rotational constants in cm-1:     0.093520     0.032173     0.027486 
Rotational constants in MHz :  2803.659723   964.517439   824.009769 

 Dipole components along the rotational axes: 
x,y,z [a.u.] :    -1.862969    -0.416773    -0.023752 
x,y,z [Debye]:    -4.735291    -1.059354    -0.060373 

 

Timings for individual modules:

Sum of individual times         ...     1534.240 sec (=  25.571 min)
GTO integral calculation        ...        7.022 sec (=   0.117 min)   0.5 %
SCF iterations                  ...     1527.218 sec (=  25.454 min)  99.5 %
                             ****ORCA TERMINATED NORMALLY****
TOTAL RUN TIME: 0 days 0 hours 25 minutes 37 seconds 941 msec
