
                                 *****************
                                 * O   R   C   A *
                                 *****************

                                            #,                                       
                                            ###                                      
                                            ####                                     
                                            #####                                    
                                            ######                                   
                                           ########,                                 
                                     ,,################,,,,,                         
                               ,,#################################,,                 
                          ,,##########################################,,             
                       ,#########################################, ''#####,          
                    ,#############################################,,   '####,        
                  ,##################################################,,,,####,       
                ,###########''''           ''''###############################       
              ,#####''   ,,,,##########,,,,          '''####'''          '####       
            ,##' ,,,,###########################,,,                        '##       
           ' ,,###''''                  '''############,,,                           
         ,,##''                                '''############,,,,        ,,,,,,###''
      ,#''                                            '''#######################'''  
     '                                                          ''''####''''         
             ,#######,   #######,   ,#######,      ##                                
            ,#'     '#,  ##    ##  ,#'     '#,    #''#        ######   ,####,        
            ##       ##  ##   ,#'  ##            #'  '#       #        #'  '#        
            ##       ##  #######   ##           ,######,      #####,   #    #        
            '#,     ,#'  ##    ##  '#,     ,#' ,#      #,         ##   #,  ,#        
             '#######'   ##     ##  '#######'  #'      '#     #####' # '####'        



                  #######################################################
                  #                        -***-                        #
                  #          Department of theory and spectroscopy      #
                  #    Directorship and core code : Frank Neese         #
                  #        Max Planck Institute fuer Kohlenforschung    #
                  #                Kaiser Wilhelm Platz 1               #
                  #                 D-45470 Muelheim/Ruhr               #
                  #                      Germany                        #
                  #                                                     #
                  #                  All rights reserved                #
                  #                        -***-                        #
                  #######################################################



                         Program Version 5.0.4 -  RELEASE  -

 With contributions from (in alphabetic order):
   Daniel Aravena         : Magnetic Suceptibility
   Michael Atanasov       : Ab Initio Ligand Field Theory (pilot matlab implementation)
   Alexander A. Auer      : GIAO ZORA, VPT2 properties, NMR spectrum
   Ute Becker             : Parallelization
   Giovanni Bistoni       : ED, misc. LED, open-shell LED, HFLD
   Martin Brehm           : Molecular dynamics
   Dmytro Bykov           : SCF Hessian
   Vijay G. Chilkuri      : MRCI spin determinant printing, contributions to CSF-ICE
   Dipayan Datta          : RHF DLPNO-CCSD density
   Achintya Kumar Dutta   : EOM-CC, STEOM-CC
   Dmitry Ganyushin       : Spin-Orbit,Spin-Spin,Magnetic field MRCI
   Miquel Garcia          : C-PCM and meta-GGA Hessian, CC/C-PCM, Gaussian charge scheme
   Yang Guo               : DLPNO-NEVPT2, F12-NEVPT2, CIM, IAO-localization
   Andreas Hansen         : Spin unrestricted coupled pair/coupled cluster methods
   Benjamin Helmich-Paris : MC-RPA, TRAH-SCF, COSX integrals
   Lee Huntington         : MR-EOM, pCC
   Robert Izsak           : Overlap fitted RIJCOSX, COSX-SCS-MP3, EOM
   Marcus Kettner         : VPT2
   Christian Kollmar      : KDIIS, OOCD, Brueckner-CCSD(T), CCSD density, CASPT2, CASPT2-K
   Simone Kossmann        : Meta GGA functionals, TD-DFT gradient, OOMP2, MP2 Hessian
   Martin Krupicka        : Initial AUTO-CI
   Lucas Lang             : DCDCAS
   Marvin Lechner         : AUTO-CI (C++ implementation), FIC-MRCC
   Dagmar Lenk            : GEPOL surface, SMD
   Dimitrios Liakos       : Extrapolation schemes; Compound Job, initial MDCI parallelization
   Dimitrios Manganas     : Further ROCIS development; embedding schemes
   Dimitrios Pantazis     : SARC Basis sets
   Anastasios Papadopoulos: AUTO-CI, single reference methods and gradients
   Taras Petrenko         : DFT Hessian,TD-DFT gradient, ASA, ECA, R-Raman, ABS, FL, XAS/XES, NRVS
   Peter Pinski           : DLPNO-MP2, DLPNO-MP2 Gradient
   Christoph Reimann      : Effective Core Potentials
   Marius Retegan         : Local ZFS, SOC
   Christoph Riplinger    : Optimizer, TS searches, QM/MM, DLPNO-CCSD(T), (RO)-DLPNO pert. Triples
   Tobias Risthaus        : Range-separated hybrids, TD-DFT gradient, RPA, STAB
   Michael Roemelt        : Original ROCIS implementation
   Masaaki Saitow         : Open-shell DLPNO-CCSD energy and density
   Barbara Sandhoefer     : DKH picture change effects
   Avijit Sen             : IP-ROCIS
   Kantharuban Sivalingam : CASSCF convergence, NEVPT2, FIC-MRCI
   Bernardo de Souza      : ESD, SOC TD-DFT
   Georgi Stoychev        : AutoAux, RI-MP2 NMR, DLPNO-MP2 response
   Willem Van den Heuvel  : Paramagnetic NMR
   Boris Wezisla          : Elementary symmetry handling
   Frank Wennmohs         : Technical directorship


 We gratefully acknowledge several colleagues who have allowed us to
 interface, adapt or use parts of their codes:
   Stefan Grimme, W. Hujo, H. Kruse, P. Pracht,  : VdW corrections, initial TS optimization,
                  C. Bannwarth, S. Ehlert          DFT functionals, gCP, sTDA/sTD-DF
   Ed Valeev, F. Pavosevic, A. Kumar             : LibInt (2-el integral package), F12 methods
   Garnet Chan, S. Sharma, J. Yang, R. Olivares  : DMRG
   Ulf Ekstrom                                   : XCFun DFT Library
   Mihaly Kallay                                 : mrcc  (arbitrary order and MRCC methods)
   Jiri Pittner, Ondrej Demel                    : Mk-CCSD
   Frank Weinhold                                : gennbo (NPA and NBO analysis)
   Christopher J. Cramer and Donald G. Truhlar   : smd solvation model
   Lars Goerigk                                  : TD-DFT with DH, B97 family of functionals
   V. Asgeirsson, H. Jonsson                     : NEB implementation
   FAccTs GmbH                                   : IRC, NEB, NEB-TS, DLPNO-Multilevel, CI-OPT
                                                   MM, QMMM, 2- and 3-layer-ONIOM, Crystal-QMMM,
                                                   LR-CPCM, SF, NACMEs, symmetry and pop. for TD-DFT,
                                                   nearIR, NL-DFT gradient (VV10), updates on ESD,
                                                   ML-optimized integration grids
   S Lehtola, MJT Oliveira, MAL Marques          : LibXC Library
   Liviu Ungur et al                             : ANISO software


 Your calculation uses the libint2 library for the computation of 2-el integrals
 For citations please refer to: http://libint.valeyev.net

 Your ORCA version has been built with support for libXC version: 5.1.0
 For citations please refer to: https://tddft.org/programs/libxc/

 This ORCA versions uses:
   CBLAS   interface :  Fast vector & matrix operations
   LAPACKE interface :  Fast linear algebra routines
   Shared memory     :  Shared parallel matrices


Your calculation utilizes the atom-pairwise dispersion correction
based on tight binding partial charges (D4)
Cite in your paper:
E.Caldeweyher, C.Bannwarth, S.Grimme, J.Chem.Phys., (2017), 147, 034112.
E.Caldeweyher, S.Ehlert, A.Hansen, H.Neugebauer, S.Grimme, J.Chem.Phys., (2018), in progress.
   

================================================================================

----- Orbital basis set information -----
Your calculation utilizes the basis: def2-SVP
   F. Weigend and R. Ahlrichs, Phys. Chem. Chem. Phys. 7, 3297 (2005).

----- AuxJ basis set information -----
Your calculation utilizes the auxiliary basis: def2/J
   F. Weigend, Phys. Chem. Chem. Phys. 8, 1057 (2006).

================================================================================
                                        WARNINGS
                       Please study these warnings very carefully!
================================================================================


WARNING: Geometry Optimization
  ===> : Switching off AutoStart
         For restart on a previous wavefunction, please use MOREAD

INFO   : the flag for use of the SHARK integral package has been found!



***************************************
The coordinates will be read from file: first_job.xyz
***************************************


Your calculation utilizes the atom-pairwise dispersion correction
based on tight binding partial charges (D4)
Cite in your paper:
E.Caldeweyher, C.Bannwarth, S.Grimme, J.Chem.Phys., (2017), 147, 034112.
E.Caldeweyher, S.Ehlert, A.Hansen, H.Neugebauer, S.Grimme, J.Chem.Phys., (2018), in progress.
   

================================================================================

----- Orbital basis set information -----
Your calculation utilizes the basis: def2-QZVP
   F. Weigend and R. Ahlrichs, Phys. Chem. Chem. Phys. 7, 3297 (2005).

----- AuxJ basis set information -----
Your calculation utilizes the auxiliary basis: def2/J
   F. Weigend, Phys. Chem. Chem. Phys. 8, 1057 (2006).

================================================================================
                                        WARNINGS
                       Please study these warnings very carefully!
================================================================================


INFO   : the flag for use of the SHARK integral package has been found!

================================================================================
                                       INPUT FILE
================================================================================
NAME = opt2.inp
|  1> !B3LYP DEF2-SVP D4 OPT FREQ SOSCF
|  2> 
|  3> %Base "first_job"
|  4> 
|  5> * xyz 0 1
|  6>    C       -3.21026       -1.73499        0.01965
|  7>    C       -4.37813       -1.08016       -0.01245
|  8>    C       -5.66740       -1.75016        0.02378
|  9>    C       -6.85498       -1.11747       -0.02680
| 10>    C       -8.19524       -1.80422       -0.00066
| 11>    H       -8.40553       -2.31995       -0.97612
| 12>    H       -9.02275       -1.07531        0.17504
| 13>    H       -8.24088       -2.58404        0.80311
| 14>    F       -2.03329       -1.09838       -0.00528
| 15>    H       -3.10103       -2.82386        0.06998
| 16>    H       -4.35566        0.01430       -0.06560
| 17>    H       -5.65066       -2.84724        0.10165
| 18>    H       -6.85265       -0.02162       -0.11238
| 19> *
| 20> 
| 21> $new_job
| 22> 
| 23> !B3LYP DEF2-QZVP
| 24> 
| 25> %base "second_job"
| 26> 
| 27> %scf
| 28> convergence tight
| 29> end
| 30> 
| 31> * XYZfile 0 1 first_job.xyz
| 32> 
| 33>                          ****END OF INPUT****
================================================================================


                 $$$$$$$$$$$$$$$$$$$$$$$$$$$$$$$$$$$$$$$$$$$$$$ 
                 $ THERE ARE  2 JOBS TO BE PROCESSED THIS RUN $
                 $$$$$$$$$$$$$$$$$$$$$$$$$$$$$$$$$$$$$$$$$$$$$$ 




                 $$$$$$$$$$$$$$$$  JOB NUMBER  1 $$$$$$$$$$$$$$


                       *****************************
                       * Geometry Optimization Run *
                       *****************************

Geometry optimization settings:
Update method            Update   .... BFGS
Choice of coordinates    CoordSys .... Z-matrix Internals
Initial Hessian          InHess   .... Almoef's Model

Convergence Tolerances:
Energy Change            TolE     ....  5.0000e-06 Eh
Max. Gradient            TolMAXG  ....  3.0000e-04 Eh/bohr
RMS Gradient             TolRMSG  ....  1.0000e-04 Eh/bohr
Max. Displacement        TolMAXD  ....  4.0000e-03 bohr
RMS Displacement         TolRMSD  ....  2.0000e-03 bohr
Strict Convergence                ....  False
------------------------------------------------------------------------------
                        ORCA OPTIMIZATION COORDINATE SETUP
------------------------------------------------------------------------------

The optimization will be done in new redundant internal coordinates
Making redundant internal coordinates   ...  (new redundants) done
Evaluating the initial hessian          ...  (Almloef) done
Evaluating the coordinates              ...  done
Calculating the B-matrix                .... done
Calculating the G-matrix                .... done
Diagonalizing the G-matrix              .... done
Small eigenvalue found = 2.766e-02
The first mode is                       ....   15
The number of degrees of freedom        ....   33

    -----------------------------------------------------------------
                    Redundant Internal Coordinates


    -----------------------------------------------------------------
         Definition                    Initial Value    Approx d2E/dq
    -----------------------------------------------------------------
      1. B(C   1,C   0)                  1.3393         0.752680   
      2. B(C   2,C   1)                  1.4534         0.494944   
      3. B(C   3,C   2)                  1.3466         0.732922   
      4. B(C   4,C   3)                  1.5062         0.407724   
      5. B(H   5,C   4)                  1.1233         0.318679   
      6. B(H   6,C   4)                  1.1167         0.326492   
      7. B(H   7,C   4)                  1.1208         0.321547   
      8. B(F   8,C   0)                  1.3383         0.628620   
      9. B(H   9,C   0)                  1.0955         0.352908   
     10. B(H  10,C   1)                  1.0960         0.352275   
     11. B(H  11,C   2)                  1.1000         0.347153   
     12. B(H  12,C   3)                  1.0992         0.348147   
     13. A(F   8,C   0,H   9)          112.7037         0.348901   
     14. A(C   1,C   0,F   8)          122.2650         0.445698   
     15. A(C   1,C   0,H   9)          125.0311         0.363494   
     16. A(C   2,C   1,H  10)          118.6683         0.338546   
     17. A(C   0,C   1,H  10)          118.1341         0.363382   
     18. A(C   0,C   1,C   2)          123.1973         0.431626   
     19. A(C   1,C   2,H  11)          116.6178         0.337720   
     20. A(C   1,C   2,C   3)          124.3885         0.429569   
     21. A(C   3,C   2,H  11)          118.9933         0.360833   
     22. A(C   2,C   3,C   4)          124.7431         0.414949   
     23. A(C   4,C   3,H  12)          117.2455         0.327197   
     24. A(C   2,C   3,H  12)          118.0010         0.361009   
     25. A(C   3,C   4,H   7)          111.4637         0.322950   
     26. A(H   5,C   4,H   6)          107.3139         0.281027   
     27. A(C   3,C   4,H   6)          111.3780         0.323760   
     28. A(H   6,C   4,H   7)          108.1283         0.281417   
     29. A(H   5,C   4,H   7)          107.1991         0.280365   
     30. A(C   3,C   4,H   5)          111.1531         0.322476   
     31. D(H  10,C   1,C   0,H   9)   -179.8353         0.040430   
     32. D(H  10,C   1,C   0,F   8)      0.2878         0.040430   
     33. D(C   2,C   1,C   0,H   9)      0.3537         0.040430   
     34. D(C   2,C   1,C   0,F   8)   -179.5232         0.040430   
     35. D(C   3,C   2,C   1,H  10)      1.2016         0.016683   
     36. D(H  11,C   2,C   1,C   0)      1.2480         0.016683   
     37. D(C   3,C   2,C   1,C   0)   -178.9883         0.016683   
     38. D(H  11,C   2,C   1,H  10)   -178.5621         0.016683   
     39. D(H  12,C   3,C   2,H  11)   -179.5354         0.038142   
     40. D(H  12,C   3,C   2,C   1)      0.7061         0.038142   
     41. D(C   4,C   3,C   2,H  11)     -0.7435         0.038142   
     42. D(C   4,C   3,C   2,C   1)    179.4980         0.038142   
     43. D(H   6,C   4,C   3,C   2)    167.3543         0.012317   
     44. D(H   5,C   4,C   3,H  12)    105.7684         0.012317   
     45. D(H   5,C   4,C   3,C   2)    -73.0318         0.012317   
     46. D(H   7,C   4,C   3,H  12)   -134.7058         0.012317   
     47. D(H   7,C   4,C   3,C   2)     46.4940         0.012317   
     48. D(H   6,C   4,C   3,H  12)    -13.8455         0.012317   
    -----------------------------------------------------------------

Number of atoms                         .... 13
Number of degrees of freedom            .... 48

         *************************************************************
         *                GEOMETRY OPTIMIZATION CYCLE   1            *
         *************************************************************
---------------------------------
CARTESIAN COORDINATES (ANGSTROEM)
---------------------------------
  C     -3.210260   -1.734990    0.019650
  C     -4.378130   -1.080160   -0.012450
  C     -5.667400   -1.750160    0.023780
  C     -6.854980   -1.117470   -0.026800
  C     -8.195240   -1.804220   -0.000660
  H     -8.405530   -2.319950   -0.976120
  H     -9.022750   -1.075310    0.175040
  H     -8.240880   -2.584040    0.803110
  F     -2.033290   -1.098380   -0.005280
  H     -3.101030   -2.823860    0.069980
  H     -4.355660    0.014300   -0.065600
  H     -5.650660   -2.847240    0.101650
  H     -6.852650   -0.021620   -0.112380

----------------------------
CARTESIAN COORDINATES (A.U.)
----------------------------
  NO LB      ZA    FRAG     MASS         X           Y           Z
   0 C     6.0000    0    12.011   -6.066512   -3.278656    0.037133
   1 C     6.0000    0    12.011   -8.273467   -2.041207   -0.023527
   2 C     6.0000    0    12.011  -10.709834   -3.307323    0.044938
   3 C     6.0000    0    12.011  -12.954035   -2.111712   -0.050645
   4 C     6.0000    0    12.011  -15.486759   -3.409482   -0.001247
   5 H     1.0000    0     1.008  -15.884150   -4.384070   -1.844599
   6 H     1.0000    0     1.008  -17.050526   -2.032041    0.330778
   7 H     1.0000    0     1.008  -15.573006   -4.883128    1.517658
   8 F     9.0000    0    18.998   -3.842361   -2.075637   -0.009978
   9 H     1.0000    0     1.008   -5.860097   -5.336322    0.132243
  10 H     1.0000    0     1.008   -8.231005    0.027023   -0.123966
  11 H     1.0000    0     1.008  -10.678200   -5.380504    0.192091
  12 H     1.0000    0     1.008  -12.949632   -0.040856   -0.212367

--------------------------------
INTERNAL COORDINATES (ANGSTROEM)
--------------------------------
 C      0   0   0     0.000000000000     0.00000000     0.00000000
 C      1   0   0     1.339310671876     0.00000000     0.00000000
 C      2   1   0     1.453420016994   123.19734558     0.00000000
 C      3   2   1     1.346551606475   124.38852884   181.01169297
 C      4   3   2     1.506189141410   124.74307279   179.49801268
 H      5   4   3     1.123263784069   111.15309947   286.96819614
 H      5   4   3     1.116670532521   111.37804612   167.35431675
 H      5   4   3     1.120824899304   111.46365269    46.49400013
 F      1   2   3     1.338339335856   122.26503968   180.47675100
 H      1   2   3     1.095491752000   125.03114804     0.35371475
 H      2   1   3     1.095980161773   118.13411263   179.81100464
 H      3   2   1     1.099967495383   116.61777254     1.24799223
 H      4   3   2     1.099189059170   118.00101304     0.70609727

---------------------------
INTERNAL COORDINATES (A.U.)
---------------------------
 C      0   0   0     0.000000000000     0.00000000     0.00000000
 C      1   0   0     2.530930378083     0.00000000     0.00000000
 C      2   1   0     2.746565789679   123.19734558     0.00000000
 C      3   2   1     2.544613761429   124.38852884   181.01169297
 C      4   3   2     2.846284983150   124.74307279   179.49801268
 H      5   4   3     2.122660928042   111.15309947   286.96819614
 H      5   4   3     2.110201488284   111.37804612   167.35431675
 H      5   4   3     2.118052103765   111.46365269    46.49400013
 F      1   2   3     2.529094819022   122.26503968   180.47675100
 H      1   2   3     2.070179393250   125.03114804     0.35371475
 H      2   1   3     2.071102353962   118.13411263   179.81100464
 H      3   2   1     2.078637322490   116.61777254     1.24799223
 H      4   3   2     2.077166291235   118.00101304     0.70609727

---------------------
BASIS SET INFORMATION
---------------------
There are 3 groups of distinct atoms

 Group   1 Type C   : 7s4p1d contracted to 3s2p1d pattern {511/31/1}
 Group   2 Type H   : 4s1p contracted to 2s1p pattern {31/1}
 Group   3 Type F   : 7s4p1d contracted to 3s2p1d pattern {511/31/1}

Atom   0C    basis set group =>   1
Atom   1C    basis set group =>   1
Atom   2C    basis set group =>   1
Atom   3C    basis set group =>   1
Atom   4C    basis set group =>   1
Atom   5H    basis set group =>   2
Atom   6H    basis set group =>   2
Atom   7H    basis set group =>   2
Atom   8F    basis set group =>   3
Atom   9H    basis set group =>   2
Atom  10H    basis set group =>   2
Atom  11H    basis set group =>   2
Atom  12H    basis set group =>   2
---------------------------------
AUXILIARY/J BASIS SET INFORMATION
---------------------------------
There are 3 groups of distinct atoms

 Group   1 Type C   : 12s5p4d2f1g contracted to 6s4p3d1f1g pattern {711111/2111/211/2/1}
 Group   2 Type H   : 5s2p1d contracted to 3s1p1d pattern {311/2/1}
 Group   3 Type F   : 12s5p4d2f1g contracted to 6s4p3d1f1g pattern {711111/2111/211/2/1}

Atom   0C    basis set group =>   1
Atom   1C    basis set group =>   1
Atom   2C    basis set group =>   1
Atom   3C    basis set group =>   1
Atom   4C    basis set group =>   1
Atom   5H    basis set group =>   2
Atom   6H    basis set group =>   2
Atom   7H    basis set group =>   2
Atom   8F    basis set group =>   3
Atom   9H    basis set group =>   2
Atom  10H    basis set group =>   2
Atom  11H    basis set group =>   2
Atom  12H    basis set group =>   2
------------------------------------------------------------------------------
                           ORCA GTO INTEGRAL CALCULATION
                           -- RI-GTO INTEGRALS CHOSEN --
------------------------------------------------------------------------------
------------------------------------------------------------------------------
                   ___                                                        
                  /   \      - P O W E R E D   B Y -                         
                 /     \                                                     
                 |  |  |   _    _      __       _____    __    __             
                 |  |  |  | |  | |    /  \     |  _  \  |  |  /  |          
                  \  \/   | |  | |   /    \    | | | |  |  | /  /          
                 / \  \   | |__| |  /  /\  \   | |_| |  |  |/  /          
                |  |  |   |  __  | /  /__\  \  |    /   |      \           
                |  |  |   | |  | | |   __   |  |    \   |  |\   \          
                \     /   | |  | | |  |  |  |  | |\  \  |  | \   \       
                 \___/    |_|  |_| |__|  |__|  |_| \__\ |__|  \__/        
                                                                              
                      - O R C A' S   B I G   F R I E N D -                    
                                      &                                       
                       - I N T E G R A L  F E E D E R -                       
                                                                              
 v1 FN, 2020, v2 2021                                                         
------------------------------------------------------------------------------


Reading SHARK input file first_job.SHARKINP.tmp ... ok
----------------------
SHARK INTEGRAL PACKAGE
----------------------

Number of atoms                             ...     13
Number of basis functions                   ...    119
Number of shells                            ...     57
Maximum angular momentum                    ...      2
Integral batch strategy                     ... SHARK/LIBINT Hybrid
RI-J (if used) integral strategy            ... SPLIT-RIJ (Revised 2003 algorithm where possible)
Printlevel                                  ...      1
Contraction scheme used                     ... SEGMENTED contraction
Coulomb Range Separation                    ... NOT USED
Exchange Range Separation                   ... NOT USED
Finite Nucleus Model                        ... NOT USED
Auxiliary Coulomb fitting basis             ... AVAILABLE
   # of basis functions in Aux-J            ...    371
   # of shells in Aux-J                     ...    125
   Maximum angular momentum in Aux-J        ...      4
Auxiliary J/K fitting basis                 ... NOT available
Auxiliary Correlation fitting basis         ... NOT available
Auxiliary 'external' fitting basis          ... NOT available
Integral threshold                          ...     2.500000e-11
Primitive cut-off                           ...     2.500000e-12
Primitive pair pre-selection threshold      ...     2.500000e-12

Calculating pre-screening integrals         ... done (  0.1 sec) Dimension = 57
Organizing shell pair data                  ... done (  0.0 sec)
Shell pair information
Total number of shell pairs                 ...      1653
Shell pairs after pre-screening             ...      1511
Total number of primitive shell pairs       ...      5877
Primitive shell pairs kept                  ...      4111
          la=0 lb=0:    490 shell pairs
          la=1 lb=0:    561 shell pairs
          la=1 lb=1:    170 shell pairs
          la=2 lb=0:    171 shell pairs
          la=2 lb=1:    101 shell pairs
          la=2 lb=2:     18 shell pairs

Calculating one electron integrals          ... done (  0.0 sec)
Calculating RI/J V-Matrix + Cholesky decomp.... done (  0.0 sec)
Calculating Nuclear repulsion               ... done (  0.0 sec) ENN=    205.448047503189 Eh

SHARK setup successfully completed in   0.4 seconds

Maximum memory used throughout the entire GTOINT-calculation: 12.7 MB
-------------------------------------------------------------------------------
                                 ORCA SCF
-------------------------------------------------------------------------------

------------
SCF SETTINGS
------------
Hamiltonian:
 Density Functional     Method          .... DFT(GTOs)
 Exchange Functional    Exchange        .... B88
   X-Alpha parameter    XAlpha          ....  0.666667
   Becke's b parameter  XBeta           ....  0.004200
 Correlation Functional Correlation     .... LYP
 LDA part of GGA corr.  LDAOpt          .... VWN-5
 Gradients option       PostSCFGGA      .... off
 Hybrid DFT is turned on
   Fraction HF Exchange ScalHFX         ....  0.200000
   Scaling of DF-GGA-X  ScalDFX         ....  0.720000
   Scaling of DF-GGA-C  ScalDFC         ....  0.810000
   Scaling of DF-LDA-C  ScalLDAC        ....  1.000000
   Perturbative correction              ....  0.000000
   Density functional embedding theory  .... OFF
   NL short-range parameter             ....  4.800000
 RI-approximation to the Coulomb term is turned on
   Number of AuxJ basis functions       .... 371
   RIJ-COSX (HFX calculated with COS-X)).... on


General Settings:
 Integral files         IntName         .... first_job
 Hartree-Fock type      HFTyp           .... RHF
 Total Charge           Charge          ....    0
 Multiplicity           Mult            ....    1
 Number of Electrons    NEL             ....   46
 Basis Dimension        Dim             ....  119
 Nuclear Repulsion      ENuc            ....    205.4480475032 Eh

Convergence Acceleration:
 DIIS                   CNVDIIS         .... on
   Start iteration      DIISMaxIt       ....    12
   Startup error        DIISStart       ....  0.200000
   # of expansion vecs  DIISMaxEq       ....     5
   Bias factor          DIISBfac        ....   1.050
   Max. coefficient     DIISMaxC        ....  10.000
 Trust-Rad. Augm. Hess. CNVTRAH         .... auto
   Auto Start mean grad. ratio tolernc. ....  1.125000
   Auto Start start iteration           ....    20
   Auto Start num. interpolation iter.  ....    10
   Max. Number of Micro iterations      ....    16
   Max. Number of Macro iterations      .... Maxiter - #DIIS iter
   Number of Davidson start vectors     ....     2
   Converg. threshold I  (grad. norm)   ....   1.000e-05
   Converg. threshold II (energy diff.) ....   1.000e-08
   Grad. Scal. Fac. for Micro threshold ....   0.100
   Minimum threshold for Micro iter.    ....   0.010
   NR start threshold (gradient norm)   ....   0.001
   Initial trust radius                 ....   0.400
   Minimum AH scaling param. (alpha)    ....   1.000
   Maximum AH scaling param. (alpha)    .... 1000.000
   Orbital update algorithm             .... Taylor
   White noise on init. David. guess    .... on
   Maximum white noise                  ....   0.010
   Quad. conv. algorithm                .... NR
 SOSCF                  CNVSOSCF        .... on
   Start iteration      SOSCFMaxIt      ....   150
   Startup grad/error   SOSCFStart      ....  0.003300
 Level Shifting         CNVShift        .... on
   Level shift para.    LevelShift      ....    0.2500
   Turn off err/grad.   ShiftErr        ....    0.0010
 Zerner damping         CNVZerner       .... off
 Static damping         CNVDamp         .... on
   Fraction old density DampFac         ....    0.7000
   Max. Damping (<1)    DampMax         ....    0.9800
   Min. Damping (>=0)   DampMin         ....    0.0000
   Turn off err/grad.   DampErr         ....    0.1000
 Fernandez-Rico         CNVRico         .... off

SCF Procedure:
 Maximum # iterations   MaxIter         ....   125
 SCF integral mode      SCFMode         .... Direct
   Integral package                     .... SHARK and LIBINT hybrid scheme
 Reset frequency        DirectResetFreq ....    20
 Integral Threshold     Thresh          ....  2.500e-11 Eh
 Primitive CutOff       TCut            ....  2.500e-12 Eh

Convergence Tolerance:
 Convergence Check Mode ConvCheckMode   .... Total+1el-Energy
 Convergence forced     ConvForced      .... 0
 Energy Change          TolE            ....  1.000e-08 Eh
 1-El. energy change                    ....  1.000e-05 Eh
 Orbital Gradient       TolG            ....  1.000e-05
 Orbital Rotation angle TolX            ....  1.000e-05
 DIIS Error             TolErr          ....  5.000e-07


Diagonalization of the overlap matrix:
Smallest eigenvalue                        ... 1.442e-03
Time for diagonalization                   ...    0.009 sec
Threshold for overlap eigenvalues          ... 1.000e-08
Number of eigenvalues below threshold      ... 0
Time for construction of square roots      ...    0.008 sec
Total time needed                          ...    0.019 sec

Time for model grid setup =    0.501 sec

------------------------------
INITIAL GUESS: MODEL POTENTIAL
------------------------------
Loading Hartree-Fock densities                     ... done
Calculating cut-offs                               ... done
Initializing the effective Hamiltonian             ... done
Setting up the integral package (SHARK)            ... done
Starting the Coulomb interaction                   ... done (   0.8 sec)
Reading the grid                                   ... done
Mapping shells                                     ... done
Starting the XC term evaluation                    ... done (   0.8 sec)
  promolecular density results
     # of electrons  =     45.996783004
     EX              =    -37.775452596
     EC              =     -1.532064576
     EX+EC           =    -39.307517173
Transforming the Hamiltonian                       ... done (   0.0 sec)
Diagonalizing the Hamiltonian                      ... done (   0.0 sec)
Back transforming the eigenvectors                 ... done (   0.0 sec)
Now organizing SCF variables                       ... done
                      ------------------
                      INITIAL GUESS DONE (   2.1 sec)
                      ------------------
-------------------
DFT GRID GENERATION
-------------------

General Integration Accuracy     IntAcc      ... 4.388
Radial Grid Type                 RadialGrid  ... OptM3 with GC (2021)
Angular Grid (max. ang.)         AngularGrid ... 4 (Lebedev-302)
Angular grid pruning method      GridPruning ... 4 (adaptive)
Weight generation scheme         WeightScheme... Becke
Basis function cutoff            BFCut       ... 1.0000e-11
Integration weight cutoff        WCut        ... 1.0000e-14
Angular grids for H and He will be reduced by one unit
Partially contracted basis set               ... off
Rotationally invariant grid construction     ... off

Total number of grid points                  ...    59030
Total number of batches                      ...      929
Average number of points per batch           ...       63
Average number of grid points per atom       ...     4541
Time for grid setup =    3.987 sec

--------------------
COSX GRID GENERATION
--------------------

GRIDX 1
-------
General Integration Accuracy     IntAcc      ... 3.816
Radial Grid Type                 RadialGrid  ... OptM3 with GC (2021)
Angular Grid (max. ang.)         AngularGrid ... 1 (Lebedev-50)
Angular grid pruning method      GridPruning ... 4 (adaptive)
Weight generation scheme         WeightScheme... Becke
Basis function cutoff            BFCut       ... 1.0000e-11
Integration weight cutoff        WCut        ... 1.0000e-14
Angular grids for H and He will be reduced by one unit
Partially contracted basis set               ... on
Rotationally invariant grid construction     ... off

Total number of grid points                  ...     7566
Total number of batches                      ...      125
Average number of points per batch           ...       60
Average number of grid points per atom       ...      582
UseSFitting                                  ... on

GRIDX 2
-------
General Integration Accuracy     IntAcc      ... 4.020
Radial Grid Type                 RadialGrid  ... OptM3 with GC (2021)
Angular Grid (max. ang.)         AngularGrid ... 2 (Lebedev-110)
Angular grid pruning method      GridPruning ... 4 (adaptive)
Weight generation scheme         WeightScheme... Becke
Basis function cutoff            BFCut       ... 1.0000e-11
Integration weight cutoff        WCut        ... 1.0000e-14
Angular grids for H and He will be reduced by one unit
Partially contracted basis set               ... on
Rotationally invariant grid construction     ... off

Total number of grid points                  ...    16390
Total number of batches                      ...      262
Average number of points per batch           ...       62
Average number of grid points per atom       ...     1261
UseSFitting                                  ... on

GRIDX 3
-------
General Integration Accuracy     IntAcc      ... 4.338
Radial Grid Type                 RadialGrid  ... OptM3 with GC (2021)
Angular Grid (max. ang.)         AngularGrid ... 3 (Lebedev-194)
Angular grid pruning method      GridPruning ... 4 (adaptive)
Weight generation scheme         WeightScheme... Becke
Basis function cutoff            BFCut       ... 1.0000e-11
Integration weight cutoff        WCut        ... 1.0000e-14
Angular grids for H and He will be reduced by one unit
Partially contracted basis set               ... on
Rotationally invariant grid construction     ... off

Total number of grid points                  ...    36043
Total number of batches                      ...      571
Average number of points per batch           ...       63
Average number of grid points per atom       ...     2773
UseSFitting                                  ... on

Time for X-Grid setup             =    2.866 sec

--------------
SCF ITERATIONS
--------------
ITER       Energy         Delta-E        Max-DP      RMS-DP      [F,P]     Damp
               ***  Starting incremental Fock matrix formation  ***
  0   -294.0057793668   0.000000000000 0.07290629  0.00243675  0.1632032 0.7000
  1   -294.0763875351  -0.070608168362 0.04926542  0.00175656  0.0857085 0.7000
                               ***Turning on DIIS***
  2   -294.1049554715  -0.028567936334 0.08026100  0.00295335  0.0323644 0.0000
  3   -294.1437777586  -0.038822287173 0.03318938  0.00132289  0.0489932 0.0000
  4   -294.1565361569  -0.012758398215 0.01430837  0.00039833  0.0112251 0.0000
  5   -294.1572325413  -0.000696384495 0.00291123  0.00012831  0.0049840 0.0000
                      *** Initiating the SOSCF procedure ***
                           *** Shutting down DIIS ***
                      *** Re-Reading the Fockian *** 
                      *** Removing any level shift *** 
ITER      Energy       Delta-E        Grad      Rot      Max-DP    RMS-DP
  6   -294.15729725  -0.0000647101  0.000448  0.000448  0.001816  0.000075
               *** Restarting incremental Fock matrix formation ***
  7   -294.15743224  -0.0001349898  0.000387  0.001986  0.001752  0.000053
  8   -294.15742870   0.0000035373  0.000818  0.001419  0.001262  0.000031
  9   -294.15743371  -0.0000050082  0.000045  0.000110  0.000206  0.000007
 10   -294.15743368   0.0000000367  0.000054  0.000060  0.000120  0.000004
 11   -294.15743376  -0.0000000875  0.000006  0.000021  0.000025  0.000001
 12   -294.15743376  -0.0000000011  0.000012  0.000014  0.000017  0.000001
                  ***Gradient check signals convergence***
              ***Rediagonalizing the Fockian in SOSCF/NRSCF***

               *****************************************************
               *                     SUCCESS                       *
               *           SCF CONVERGED AFTER  13 CYCLES          *
               *****************************************************

Old exchange energy                            =     -7.663288043 Eh
New exchange energy                            =     -7.663236690 Eh
Exchange energy change after final integration =      0.000051353 Eh
Total energy after final integration           =   -294.157382412 Eh
Final COS-X integration done in                =    13.953 sec

----------------
TOTAL SCF ENERGY
----------------

Total Energy       :         -294.15738241 Eh           -8004.42931 eV

Components:
Nuclear Repulsion  :          205.44804750 Eh            5590.52559 eV
Electronic Energy  :         -499.60542991 Eh          -13594.95490 eV
One Electron Energy:         -806.78435360 Eh          -21953.71837 eV
Two Electron Energy:          307.17892368 Eh            8358.76346 eV
Max COSX asymmetry :            0.00000297 Eh               0.00008 eV

Virial components:
Potential Energy   :         -585.48970231 Eh          -15931.98477 eV
Kinetic Energy     :          291.33231989 Eh            7927.55545 eV
Virial Ratio       :            2.00969704


DFT components:
N(Alpha)           :       22.999992430717 electrons
N(Beta)            :       22.999992430717 electrons
N(Total)           :       45.999984861435 electrons
E(X)               :      -30.442691934490 Eh       
E(C)               :       -1.815582980825 Eh       
E(XC)              :      -32.258274915314 Eh       
DFET-embed. en.    :        0.000000000000 Eh       

---------------
SCF CONVERGENCE
---------------

  Last Energy change         ...   -7.7193e-10  Tolerance :   1.0000e-08
  Last MAX-Density change    ...    3.9968e-15  Tolerance :   1.0000e-07
  Last RMS-Density change    ...    6.0375e-17  Tolerance :   5.0000e-09
  Last Orbital Gradient      ...    4.2194e-07  Tolerance :   1.0000e-05
  Last Orbital Rotation      ...    6.7686e-07  Tolerance :   1.0000e-05

             **** THE GBW FILE WAS UPDATED (first_job.gbw) ****
             **** DENSITY first_job.scfp WAS UPDATED ****
             **** ENERGY FILE WAS UPDATED (first_job.en.tmp) ****
             **** THE GBW FILE WAS UPDATED (first_job.gbw) ****
             **** DENSITY first_job.scfp WAS UPDATED ****
----------------
ORBITAL ENERGIES
----------------

  NO   OCC          E(Eh)            E(eV) 
   0   2.0000     -24.690703      -671.8682 
   1   2.0000     -10.264149      -279.3017 
   2   2.0000     -10.192493      -277.3518 
   3   2.0000     -10.191457      -277.3236 
   4   2.0000     -10.191228      -277.3174 
   5   2.0000     -10.190506      -277.2978 
   6   2.0000      -1.199895       -32.6508 
   7   2.0000      -0.805557       -21.9203 
   8   2.0000      -0.751901       -20.4603 
   9   2.0000      -0.674055       -18.3420 
  10   2.0000      -0.592272       -16.1165 
  11   2.0000      -0.557467       -15.1694 
  12   2.0000      -0.512045       -13.9334 
  13   2.0000      -0.492502       -13.4017 
  14   2.0000      -0.456559       -12.4236 
  15   2.0000      -0.440775       -11.9941 
  16   2.0000      -0.409962       -11.1556 
  17   2.0000      -0.407763       -11.0958 
  18   2.0000      -0.375192       -10.2095 
  19   2.0000      -0.364397        -9.9158 
  20   2.0000      -0.349864        -9.5203 
  21   2.0000      -0.314686        -8.5630 
  22   2.0000      -0.219043        -5.9605 
  23   0.0000      -0.024267        -0.6604 
  24   0.0000       0.065909         1.7935 
  25   0.0000       0.069470         1.8904 
  26   0.0000       0.072123         1.9626 
  27   0.0000       0.101677         2.7668 
  28   0.0000       0.115562         3.1446 
  29   0.0000       0.128728         3.5029 
  30   0.0000       0.147942         4.0257 
  31   0.0000       0.155174         4.2225 
  32   0.0000       0.169761         4.6194 
  33   0.0000       0.250759         6.8235 
  34   0.0000       0.291736         7.9385 
  35   0.0000       0.327498         8.9117 
  36   0.0000       0.374503        10.1907 
  37   0.0000       0.383112        10.4250 
  38   0.0000       0.401964        10.9380 
  39   0.0000       0.435925        11.8621 
  40   0.0000       0.455800        12.4030 
  41   0.0000       0.460066        12.5190 
  42   0.0000       0.478680        13.0255 
  43   0.0000       0.511002        13.9051 
  44   0.0000       0.524893        14.2831 
  45   0.0000       0.532386        14.4870 
  46   0.0000       0.589060        16.0291 
  47   0.0000       0.611469        16.6389 
  48   0.0000       0.631080        17.1726 
  49   0.0000       0.635516        17.2933 
  50   0.0000       0.641288        17.4503 
  51   0.0000       0.650376        17.6976 
  52   0.0000       0.662449        18.0262 
  53   0.0000       0.667828        18.1725 
  54   0.0000       0.669932        18.2298 
  55   0.0000       0.688701        18.7405 
  56   0.0000       0.701067        19.0770 
  57   0.0000       0.752377        20.4732 
  58   0.0000       0.788894        21.4669 
  59   0.0000       0.844042        22.9675 
  60   0.0000       0.925906        25.1952 
  61   0.0000       0.964059        26.2334 
  62   0.0000       1.074898        29.2495 
  63   0.0000       1.129518        30.7358 
  64   0.0000       1.145844        31.1800 
  65   0.0000       1.158208        31.5164 
  66   0.0000       1.213829        33.0300 
  67   0.0000       1.227989        33.4153 
  68   0.0000       1.252278        34.0762 
  69   0.0000       1.277854        34.7722 
  70   0.0000       1.373461        37.3738 
  71   0.0000       1.414204        38.4825 
  72   0.0000       1.507279        41.0151 
  73   0.0000       1.521459        41.4010 
  74   0.0000       1.538621        41.8680 
  75   0.0000       1.592996        43.3476 
  76   0.0000       1.674631        45.5690 
  77   0.0000       1.680541        45.7298 
  78   0.0000       1.712607        46.6024 
  79   0.0000       1.740131        47.3514 
  80   0.0000       1.756917        47.8081 
  81   0.0000       1.766235        48.0617 
  82   0.0000       1.769343        48.1463 
  83   0.0000       1.788926        48.6792 
  84   0.0000       1.825403        49.6717 
  85   0.0000       1.842211        50.1291 
  86   0.0000       1.856679        50.5228 
  87   0.0000       1.900174        51.7064 
  88   0.0000       1.949760        53.0557 
  89   0.0000       1.964757        53.4637 
  90   0.0000       2.016100        54.8609 
  91   0.0000       2.046340        55.6837 
  92   0.0000       2.070664        56.3456 
  93   0.0000       2.123091        57.7722 
  94   0.0000       2.161210        58.8095 
  95   0.0000       2.182567        59.3907 
  96   0.0000       2.219536        60.3966 
  97   0.0000       2.252543        61.2948 
  98   0.0000       2.336830        63.5884 
  99   0.0000       2.407733        65.5177 
 100   0.0000       2.430105        66.1265 
 101   0.0000       2.483236        67.5723 
 102   0.0000       2.518464        68.5309 
 103   0.0000       2.543781        69.2198 
 104   0.0000       2.567589        69.8676 
 105   0.0000       2.636557        71.7444 
 106   0.0000       2.720986        74.0418 
 107   0.0000       2.760702        75.1225 
 108   0.0000       2.856340        77.7250 
 109   0.0000       2.888201        78.5919 
 110   0.0000       2.905641        79.0665 
 111   0.0000       2.973338        80.9086 
 112   0.0000       3.084100        83.9226 
 113   0.0000       3.106891        84.5428 
 114   0.0000       3.243588        88.2625 
 115   0.0000       3.281363        89.2904 
 116   0.0000       3.323218        90.4293 
 117   0.0000       3.533164        96.1423 
 118   0.0000       3.852789       104.8397 

                    ********************************
                    * MULLIKEN POPULATION ANALYSIS *
                    ********************************

-----------------------
MULLIKEN ATOMIC CHARGES
-----------------------
   0 C :    0.179059
   1 C :    0.003772
   2 C :    0.014146
   3 C :   -0.105341
   4 C :    0.032472
   5 H :    0.038000
   6 H :    0.019369
   7 H :    0.031027
   8 F :   -0.198149
   9 H :    0.005824
  10 H :    0.002698
  11 H :   -0.020463
  12 H :   -0.002414
Sum of atomic charges:   -0.0000000

--------------------------------
MULLIKEN REDUCED ORBITAL CHARGES
--------------------------------
  0 C s       :     3.111190  s :     3.111190
      pz      :     1.032859  p :     2.636673
      px      :     0.738131
      py      :     0.865683
      dz2     :     0.005239  d :     0.073078
      dxz     :     0.015934
      dyz     :     0.002964
      dx2y2   :     0.025489
      dxy     :     0.023452
  1 C s       :     3.136554  s :     3.136554
      pz      :     1.029772  p :     2.825821
      px      :     0.893572
      py      :     0.902477
      dz2     :     0.002590  d :     0.033854
      dxz     :     0.008403
      dyz     :     0.002216
      dx2y2   :     0.010956
      dxy     :     0.009689
  2 C s       :     3.142654  s :     3.142654
      pz      :     1.005834  p :     2.807795
      px      :     0.904264
      py      :     0.897696
      dz2     :     0.002517  d :     0.035405
      dxz     :     0.007989
      dyz     :     0.001889
      dx2y2   :     0.012966
      dxy     :     0.010044
  3 C s       :     3.176702  s :     3.176702
      pz      :     1.000051  p :     2.894020
      px      :     0.957033
      py      :     0.936936
      dz2     :     0.002392  d :     0.034620
      dxz     :     0.007191
      dyz     :     0.001809
      dx2y2   :     0.013234
      dxy     :     0.009994
  4 C s       :     2.987957  s :     2.987957
      pz      :     1.004760  p :     2.951711
      px      :     0.963510
      py      :     0.983441
      dz2     :     0.005112  d :     0.027860
      dxz     :     0.003342
      dyz     :     0.007088
      dx2y2   :     0.004418
      dxy     :     0.007901
  5 H s       :     0.939443  s :     0.939443
      pz      :     0.011449  p :     0.022557
      px      :     0.004535
      py      :     0.006573
  6 H s       :     0.958463  s :     0.958463
      pz      :     0.005005  p :     0.022167
      px      :     0.009053
      py      :     0.008109
  7 H s       :     0.946588  s :     0.946588
      pz      :     0.009495  p :     0.022385
      px      :     0.004056
      py      :     0.008834
  8 F s       :     3.896964  s :     3.896964
      pz      :     1.888702  p :     5.292957
      px      :     1.583782
      py      :     1.820473
      dz2     :     0.001079  d :     0.008228
      dxz     :     0.001667
      dyz     :     0.000446
      dx2y2   :     0.002245
      dxy     :     0.002792
  9 H s       :     0.971596  s :     0.971596
      pz      :     0.005069  p :     0.022580
      px      :     0.002369
      py      :     0.015142
 10 H s       :     0.974165  s :     0.974165
      pz      :     0.004663  p :     0.023137
      px      :     0.003458
      py      :     0.015016
 11 H s       :     0.997775  s :     0.997775
      pz      :     0.004647  p :     0.022688
      px      :     0.003467
      py      :     0.014574
 12 H s       :     0.979848  s :     0.979848
      pz      :     0.004735  p :     0.022566
      px      :     0.003415
      py      :     0.014415


                     *******************************
                     * LOEWDIN POPULATION ANALYSIS *
                     *******************************

----------------------
LOEWDIN ATOMIC CHARGES
----------------------
   0 C :    0.082527
   1 C :   -0.073154
   2 C :   -0.038125
   3 C :   -0.038116
   4 C :   -0.063828
   5 H :    0.038638
   6 H :    0.031242
   7 H :    0.035643
   8 F :   -0.072364
   9 H :    0.015193
  10 H :    0.036669
  11 H :    0.023506
  12 H :    0.022168

-------------------------------
LOEWDIN REDUCED ORBITAL CHARGES
-------------------------------
  0 C s       :     2.881765  s :     2.881765
      pz      :     1.012432  p :     2.868740
      px      :     0.871049
      py      :     0.985259
      dz2     :     0.011722  d :     0.166967
      dxz     :     0.032260
      dyz     :     0.005192
      dx2y2   :     0.063217
      dxy     :     0.054576
  1 C s       :     2.873415  s :     2.873415
      pz      :     1.007060  p :     3.111262
      px      :     1.052279
      py      :     1.051923
      dz2     :     0.006767  d :     0.088477
      dxz     :     0.017170
      dyz     :     0.003879
      dx2y2   :     0.031630
      dxy     :     0.029031
  2 C s       :     2.864967  s :     2.864967
      pz      :     0.988751  p :     3.080915
      px      :     1.047514
      py      :     1.044650
      dz2     :     0.006110  d :     0.092243
      dxz     :     0.016840
      dyz     :     0.003561
      dx2y2   :     0.036779
      dxy     :     0.028952
  3 C s       :     2.880286  s :     2.880286
      pz      :     0.971159  p :     3.071883
      px      :     1.052811
      py      :     1.047913
      dz2     :     0.005633  d :     0.085947
      dxz     :     0.013861
      dyz     :     0.003162
      dx2y2   :     0.035672
      dxy     :     0.027619
  4 C s       :     2.850678  s :     2.850678
      pz      :     1.061243  p :     3.142749
      px      :     1.026137
      py      :     1.055368
      dz2     :     0.013365  d :     0.070402
      dxz     :     0.007257
      dyz     :     0.018479
      dx2y2   :     0.010504
      dxy     :     0.020797
  5 H s       :     0.900275  s :     0.900275
      pz      :     0.032005  p :     0.061088
      px      :     0.012122
      py      :     0.016961
  6 H s       :     0.907510  s :     0.907510
      pz      :     0.012208  p :     0.061247
      px      :     0.026226
      py      :     0.022812
  7 H s       :     0.903270  s :     0.903270
      pz      :     0.025519  p :     0.061087
      px      :     0.010936
      py      :     0.024632
  8 F s       :     3.724752  s :     3.724752
      pz      :     1.882167  p :     5.334760
      px      :     1.614394
      py      :     1.838200
      dz2     :     0.001817  d :     0.012851
      dxz     :     0.002464
      dyz     :     0.000638
      dx2y2   :     0.003306
      dxy     :     0.004626
  9 H s       :     0.916488  s :     0.916488
      pz      :     0.015026  p :     0.068319
      px      :     0.007504
      py      :     0.045789
 10 H s       :     0.896284  s :     0.896284
      pz      :     0.014629  p :     0.067047
      px      :     0.009993
      py      :     0.042425
 11 H s       :     0.911497  s :     0.911497
      pz      :     0.013837  p :     0.064997
      px      :     0.010188
      py      :     0.040973
 12 H s       :     0.910891  s :     0.910891
      pz      :     0.015230  p :     0.066941
      px      :     0.010474
      py      :     0.041237


                      *****************************
                      * MAYER POPULATION ANALYSIS *
                      *****************************

  NA   - Mulliken gross atomic population
  ZA   - Total nuclear charge
  QA   - Mulliken gross atomic charge
  VA   - Mayer's total valence
  BVA  - Mayer's bonded valence
  FA   - Mayer's free valence

  ATOM       NA         ZA         QA         VA         BVA        FA
  0 C      5.8209     6.0000     0.1791     3.9379     3.9379    -0.0000
  1 C      5.9962     6.0000     0.0038     3.8241     3.8241    -0.0000
  2 C      5.9859     6.0000     0.0141     3.9333     3.9333    -0.0000
  3 C      6.1053     6.0000    -0.1053     4.0139     4.0139    -0.0000
  4 C      5.9675     6.0000     0.0325     3.9252     3.9252    -0.0000
  5 H      0.9620     1.0000     0.0380     0.9846     0.9846    -0.0000
  6 H      0.9806     1.0000     0.0194     0.9838     0.9838    -0.0000
  7 H      0.9690     1.0000     0.0310     0.9890     0.9890    -0.0000
  8 F      9.1981     9.0000    -0.1981     1.1642     1.1642    -0.0000
  9 H      0.9942     1.0000     0.0058     0.9948     0.9948    -0.0000
 10 H      0.9973     1.0000     0.0027     1.0011     1.0011    -0.0000
 11 H      1.0205     1.0000    -0.0205     0.9917     0.9917    -0.0000
 12 H      1.0024     1.0000    -0.0024     0.9869     0.9869    -0.0000

  Mayer bond orders larger than 0.100000
B(  0-C ,  1-C ) :   1.7558 B(  0-C ,  3-C ) :   0.1166 B(  0-C ,  8-F ) :   1.0672 
B(  0-C ,  9-H ) :   0.9823 B(  1-C ,  2-C ) :   1.0979 B(  1-C , 10-H ) :   0.9597 
B(  2-C ,  3-C ) :   1.8393 B(  2-C , 11-H ) :   0.9662 B(  3-C ,  4-C ) :   1.0566 
B(  3-C , 12-H ) :   0.9600 B(  4-C ,  5-H ) :   0.9580 B(  4-C ,  6-H ) :   0.9633 
B(  4-C ,  7-H ) :   0.9650 

-------
TIMINGS
-------

Total SCF time: 0 days 0 hours 2 min 13 sec 

Total time                  ....     133.754 sec
Sum of individual times     ....     132.888 sec  ( 99.4%)

Fock matrix formation       ....     123.011 sec  ( 92.0%)
  Split-RI-J                ....      12.516 sec  ( 10.2% of F)
  Chain of spheres X        ....      85.996 sec  ( 69.9% of F)
  XC integration            ....      23.945 sec  ( 19.5% of F)
    Basis function eval.    ....       9.044 sec  ( 37.8% of XC)
    Density eval.           ....       6.376 sec  ( 26.6% of XC)
    XC-Functional eval.     ....       2.454 sec  ( 10.2% of XC)
    XC-Potential eval.      ....       4.450 sec  ( 18.6% of XC)
Diagonalization             ....       0.113 sec  (  0.1%)
Density matrix formation    ....       0.008 sec  (  0.0%)
Population analysis         ....       0.088 sec  (  0.1%)
Initial guess               ....       1.573 sec  (  1.2%)
Orbital Transformation      ....       0.000 sec  (  0.0%)
Orbital Orthonormalization  ....       0.000 sec  (  0.0%)
DIIS solution               ....       0.320 sec  (  0.2%)
SOSCF solution              ....       0.421 sec  (  0.3%)
Grid generation             ....       7.354 sec  (  5.5%)

Maximum memory used throughout the entire SCF-calculation: 57.5 MB


-------------------------------------------------------------------------------
                          DFT DISPERSION CORRECTION                            
                                                                               
                                 DFTD4 V2.5                                    
-------------------------------------------------------------------------------
The B3LYP functional is recognized
Active option DFTDOPT                   ...         5   

Starting D4
-------------------------   ----------------
Dispersion correction           -0.013268610
-------------------------   ----------------


-------------------------   --------------------
FINAL SINGLE POINT ENERGY      -294.170651021699
-------------------------   --------------------

------------------------------------------------------------------------------
                         ORCA SCF GRADIENT CALCULATION
------------------------------------------------------------------------------

 ... reading COSX grid (gridx3)
Gradient of the Kohn-Sham DFT energy:
Kohn-Sham wavefunction type      ... RKS
Hartree-Fock exchange scaling    ...    0.200
Number of operators              ...    1
Number of atoms                  ...   13
Basis set dimensions             ...  119
Integral neglect threshold       ... 2.5e-11
Integral primitive cutoff        ... 2.5e-12
SHARK Integral package           ... ON

Nuc. rep. gradient       (SHARK) ... done (  0.0 sec)
HCore & Overlap gradient (SHARK) ... done (  0.8 sec)
RI-J gradient            (SHARK) ... done (  2.8 sec)
COSX-gradient                    ... done ( 15.5 sec)
Exchange-correlation gradient    ... done
Dispersion correction            ... Starting D4


------------------- 
Dispersion Gradient 
------------------- 
   1  :    0.000376600   -0.000068124    0.000004031
   2  :    0.000272259    0.000080595   -0.000001716
   3  :    0.000002362   -0.000042331    0.000007886
   4  :   -0.000330355    0.000089702   -0.000007027
   5  :   -0.000421481   -0.000076724   -0.000001044
   6  :   -0.000109445   -0.000019395   -0.000021658
   7  :   -0.000090867   -0.000001335    0.000003254
   8  :   -0.000108363   -0.000022652    0.000016529
   9  :    0.000263213    0.000022305   -0.000000648
  10  :    0.000123627   -0.000028412    0.000001148
  11  :    0.000081823    0.000062450   -0.000002392
  12  :    0.000009061   -0.000064037    0.000006291
  13  :   -0.000068436    0.000067958   -0.000004654

  |G| =    0.000822608

done

------------------
CARTESIAN GRADIENT
------------------

   1   C   :   -0.000081327   -0.000000192   -0.000367686
   2   C   :    0.000025170    0.000070116    0.000172887
   3   C   :    0.000145711    0.000294558   -0.000700911
   4   C   :    0.000142754   -0.000263259    0.000551597
   5   C   :    0.006952182    0.004223376    0.000018731
   6   H   :   -0.000850037   -0.005113297   -0.009597084
   7   H   :   -0.007078520    0.007528403    0.001177355
   8   H   :    0.000349263   -0.007051395    0.008460186
   9   F   :    0.000074002    0.000144278    0.000218227
  10   H   :    0.000001268   -0.000205793   -0.000101347
  11   H   :   -0.000055693    0.000333723    0.000080528
  12   H   :    0.000070796   -0.000961276   -0.000126034
  13   H   :    0.000055687    0.001164538    0.000082345

Difference to translation invariance:
           :   -0.0002487443    0.0001637814   -0.0001312060

Difference to rotation invariance:
           :    0.0003382948   -0.0011080918   -0.0015605855

Norm of the cartesian gradient     ...    0.0204562646
RMS gradient                       ...    0.0032756239
MAX gradient                       ...    0.0095970836

-------
TIMINGS
-------

Total SCF gradient time            ...       29.340 sec

One electron gradient       ....       0.845 sec  (  2.9%)
RI-J Coulomb gradient       ....       2.756 sec  (  9.4%)
COSX gradient               ....      15.516 sec  ( 52.9%)
XC gradient                 ....       8.796 sec  ( 30.0%)

Maximum memory used throughout the entire SCFGRAD-calculation: 45.3 MB
------------------------------------------------------------------------------
                         ORCA GEOMETRY RELAXATION STEP
------------------------------------------------------------------------------

Reading the OPT-File                    .... done
Getting information on internals        .... done
Copying old internal coords+grads       .... done
Making the new internal coordinates     .... (new redundants).... done
Validating the new internal coordinates .... (new redundants).... done
Calculating the B-matrix                .... done
Calculating the G,G- and P matrices     .... done
Transforming gradient to internals      .... done
Projecting the internal gradient        .... done
Number of atoms                         ....  13
Number of internal coordinates          ....  48
Current Energy                          ....  -294.170651022 Eh
Current gradient norm                   ....     0.020456265 Eh/bohr
Maximum allowed component of the step   ....  0.300
Current trust radius                    ....  0.300
Evaluating the initial hessian          ....  (Almloef) done
Projecting the Hessian                  .... done
Forming the augmented Hessian           .... done
Diagonalizing the augmented Hessian     .... done
Last element of RFO vector              ....  0.993458921
Lowest eigenvalues of augmented Hessian:
 -0.001244594  0.012434393  0.016692481  0.022750500  0.027647700
Length of the computed step             ....  0.114941919
The final length of the internal step   ....  0.114941919
Converting the step to cartesian space:
 Initial RMS(Int)=    0.0165904369
Transforming coordinates:
 Iter   0:  RMS(Cart)=    0.0267531412 RMS(Int)=    0.9051097525
 Iter   1:  RMS(Cart)=    0.0005147628 RMS(Int)=    0.0004269521
 Iter   2:  RMS(Cart)=    0.0000156082 RMS(Int)=    0.0000116150
 Iter   3:  RMS(Cart)=    0.0000006285 RMS(Int)=    0.0000005002
 Iter   4:  RMS(Cart)=    0.0000000185 RMS(Int)=    0.0000000156
done
Storing new coordinates                 .... done

                                .--------------------.
          ----------------------|Geometry convergence|-------------------------
          Item                value                   Tolerance       Converged
          ---------------------------------------------------------------------
          RMS gradient        0.0027267136            0.0001000000      NO
          MAX gradient        0.0109579518            0.0003000000      NO
          RMS step            0.0165904369            0.0020000000      NO
          MAX step            0.0423077430            0.0040000000      NO
          ........................................................
          Max(Bonds)      0.0180      Max(Angles)    0.22
          Max(Dihed)        2.42      Max(Improp)    0.00
          ---------------------------------------------------------------------

The optimization has not yet converged - more geometry cycles are needed


    ---------------------------------------------------------------------------
                         Redundant Internal Coordinates
                            (Angstroem and degrees)

        Definition                    Value    dE/dq     Step     New-Value
    ----------------------------------------------------------------------------
     1. B(C   1,C   0)                1.3393  0.000114 -0.0001    1.3392   
     2. B(C   2,C   1)                1.4534  0.000146 -0.0002    1.4533   
     3. B(C   3,C   2)                1.3466  0.000482 -0.0003    1.3462   
     4. B(C   4,C   3)                1.5062  0.000679 -0.0009    1.5053   
     5. B(H   5,C   4)                1.1233  0.010833 -0.0179    1.1053   
     6. B(H   6,C   4)                1.1167  0.010335 -0.0167    1.1000   
     7. B(H   7,C   4)                1.1208  0.010958 -0.0180    1.1029   
     8. B(F   8,C   0)                1.3383  0.000130 -0.0001    1.3382   
     9. B(H   9,C   0)                1.0955  0.000233 -0.0003    1.0951   
    10. B(H  10,C   1)                1.0960  0.000305 -0.0005    1.0955   
    11. B(H  11,C   2)                1.1000  0.000966 -0.0015    1.0985   
    12. B(H  12,C   3)                1.0992  0.001149 -0.0017    1.0974   
    13. A(F   8,C   0,H   9)          112.70  0.000039   -0.01    112.70   
    14. A(C   1,C   0,F   8)          122.27 -0.000054    0.01    122.27   
    15. A(C   1,C   0,H   9)          125.03  0.000014   -0.00    125.03   
    16. A(C   2,C   1,H  10)          118.67  0.000028   -0.00    118.66   
    17. A(C   0,C   1,H  10)          118.13  0.000095   -0.01    118.12   
    18. A(C   0,C   1,C   2)          123.20 -0.000123    0.02    123.21   
    19. A(C   1,C   2,H  11)          116.62  0.000025   -0.00    116.62   
    20. A(C   1,C   2,C   3)          124.39 -0.000187    0.03    124.41   
    21. A(C   3,C   2,H  11)          118.99  0.000162   -0.02    118.97   
    22. A(C   2,C   3,C   4)          124.74 -0.000273    0.04    124.79   
    23. A(C   4,C   3,H  12)          117.25  0.000236   -0.04    117.21   
    24. A(C   2,C   3,H  12)          118.00  0.000034    0.00    118.00   
    25. A(C   3,C   4,H   7)          111.46 -0.001050    0.20    111.67   
    26. A(H   5,C   4,H   6)          107.31  0.001103   -0.22    107.10   
    27. A(C   3,C   4,H   6)          111.38 -0.000891    0.17    111.54   
    28. A(H   6,C   4,H   7)          108.13  0.001065   -0.20    107.92   
    29. A(H   5,C   4,H   7)          107.20  0.001097   -0.20    107.00   
    30. A(C   3,C   4,H   5)          111.15 -0.001122    0.21    111.37   
    31. D(H  10,C   1,C   0,H   9)   -179.84  0.000050   -0.05   -179.89   
    32. D(H  10,C   1,C   0,F   8)      0.29  0.000228   -0.30     -0.01   
    33. D(C   2,C   1,C   0,H   9)      0.35  0.000114   -0.17      0.18   
    34. D(C   2,C   1,C   0,F   8)   -179.52  0.000292   -0.42   -179.94   
    35. D(C   3,C   2,C   1,H  10)      1.20  0.000245   -0.74      0.47   
    36. D(H  11,C   2,C   1,C   0)      1.25  0.000172   -0.60      0.65   
    37. D(C   3,C   2,C   1,C   0)   -178.99  0.000181   -0.61   -179.60   
    38. D(H  11,C   2,C   1,H  10)   -178.56  0.000236   -0.72   -179.28   
    39. D(H  12,C   3,C   2,H  11)   -179.54  0.000465   -0.77   -180.30   
    40. D(H  12,C   3,C   2,C   1)      0.71  0.000456   -0.75     -0.05   
    41. D(C   4,C   3,C   2,H  11)     -0.74  0.000273   -0.31     -1.05   
    42. D(C   4,C   3,C   2,C   1)    179.50  0.000265   -0.29    179.21   
    43. D(H   6,C   4,C   3,C   2)    167.35  0.000602   -2.40    164.95   
    44. D(H   5,C   4,C   3,H  12)    105.77  0.000458   -1.97    103.80   
    45. D(H   5,C   4,C   3,C   2)    -73.03  0.000650   -2.42    -75.46   
    46. D(H   7,C   4,C   3,H  12)   -134.71  0.000391   -1.94   -136.65   
    47. D(H   7,C   4,C   3,C   2)     46.49  0.000584   -2.40     44.10   
    48. D(H   6,C   4,C   3,H  12)    -13.85  0.000410   -1.95    -15.79   
    ----------------------------------------------------------------------------

         *************************************************************
         *                GEOMETRY OPTIMIZATION CYCLE   2            *
         *************************************************************
---------------------------------
CARTESIAN COORDINATES (ANGSTROEM)
---------------------------------
  C     -3.210898   -1.734438    0.028813
  C     -4.378903   -1.081003   -0.019401
  C     -5.668022   -1.750504    0.024351
  C     -6.855618   -1.118907   -0.030128
  C     -8.195220   -1.804961   -0.002572
  H     -8.423768   -2.281287   -0.973483
  H     -9.008379   -1.094953    0.208667
  H     -8.230497   -2.598744    0.762259
  F     -2.034141   -1.098466   -0.011710
  H     -3.101382   -2.821629    0.102041
  H     -4.356531    0.011721   -0.094411
  H     -5.651219   -2.845379    0.111931
  H     -6.853882   -0.024550   -0.112436

----------------------------
CARTESIAN COORDINATES (A.U.)
----------------------------
  NO LB      ZA    FRAG     MASS         X           Y           Z
   0 C     6.0000    0    12.011   -6.067717   -3.277614    0.054448
   1 C     6.0000    0    12.011   -8.274927   -2.042799   -0.036663
   2 C     6.0000    0    12.011  -10.711010   -3.307973    0.046017
   3 C     6.0000    0    12.011  -12.955241   -2.114428   -0.056933
   4 C     6.0000    0    12.011  -15.486721   -3.410882   -0.004861
   5 H     1.0000    0     1.008  -15.918615   -4.311008   -1.839615
   6 H     1.0000    0     1.008  -17.023370   -2.069161    0.394323
   7 H     1.0000    0     1.008  -15.553385   -4.910914    1.440460
   8 F     9.0000    0    18.998   -3.843969   -2.075800   -0.022129
   9 H     1.0000    0     1.008   -5.860762   -5.332105    0.192829
  10 H     1.0000    0     1.008   -8.232650    0.022149   -0.178411
  11 H     1.0000    0     1.008  -10.679255   -5.376987    0.211519
  12 H     1.0000    0     1.008  -12.951960   -0.046393   -0.212473

--------------------------------
INTERNAL COORDINATES (ANGSTROEM)
--------------------------------
 C      0   0   0     0.000000000000     0.00000000     0.00000000
 C      1   0   0     1.339230742733     0.00000000     0.00000000
 C      2   1   0     1.453263828782   123.21459822     0.00000000
 C      3   2   1     1.346204295138   124.41486584   180.39851249
 C      4   3   2     1.505310976332   124.78513805   179.20624144
 H      5   4   3     1.105345038230   111.36602208   284.54411953
 H      5   4   3     1.099983026197   111.54344662   164.95120187
 H      5   4   3     1.102860661687   111.66569647    44.09732159
 F      1   2   3     1.338229884176   122.27244235   180.05795213
 H      1   2   3     1.095143041873   125.02952924     0.18007397
 H      2   1   3     1.095523323588   118.12043311   179.93317945
 H      3   2   1     1.098500655137   116.61534050     0.65191727
 H      4   3   2     1.097449371398   118.00095709   359.95433686

---------------------------
INTERNAL COORDINATES (A.U.)
---------------------------
 C      0   0   0     0.000000000000     0.00000000     0.00000000
 C      1   0   0     2.530779333893     0.00000000     0.00000000
 C      2   1   0     2.746270636731   123.21459822     0.00000000
 C      3   2   1     2.543957438119   124.41486584   180.39851249
 C      4   3   2     2.844625491654   124.78513805   179.20624144
 H      5   4   3     2.088799405744   111.36602208   284.54411953
 H      5   4   3     2.078666671473   111.54344662   164.95120187
 H      5   4   3     2.084104614463   111.66569647    44.09732159
 F      1   2   3     2.528887985323   122.27244235   180.05795213
 H      1   2   3     2.069520426609   125.02952924     0.18007397
 H      2   1   3     2.070239054904   118.12043311   179.93317945
 H      3   2   1     2.075865396142   116.61534050     0.65191727
 H      4   3   2     2.073878757787   118.00095709   359.95433686

------------------------------------------------------------------------------
                   ___                                                        
                  /   \      - P O W E R E D   B Y -                         
                 /     \                                                     
                 |  |  |   _    _      __       _____    __    __             
                 |  |  |  | |  | |    /  \     |  _  \  |  |  /  |          
                  \  \/   | |  | |   /    \    | | | |  |  | /  /          
                 / \  \   | |__| |  /  /\  \   | |_| |  |  |/  /          
                |  |  |   |  __  | /  /__\  \  |    /   |      \           
                |  |  |   | |  | | |   __   |  |    \   |  |\   \          
                \     /   | |  | | |  |  |  |  | |\  \  |  | \   \       
                 \___/    |_|  |_| |__|  |__|  |_| \__\ |__|  \__/        
                                                                              
                      - O R C A' S   B I G   F R I E N D -                    
                                      &                                       
                       - I N T E G R A L  F E E D E R -                       
                                                                              
 v1 FN, 2020, v2 2021                                                         
------------------------------------------------------------------------------


Reading SHARK input file first_job.SHARKINP.tmp ... ok
----------------------
SHARK INTEGRAL PACKAGE
----------------------

Number of atoms                             ...     13
Number of basis functions                   ...    119
Number of shells                            ...     57
Maximum angular momentum                    ...      2
Integral batch strategy                     ... SHARK/LIBINT Hybrid
RI-J (if used) integral strategy            ... SPLIT-RIJ (Revised 2003 algorithm where possible)
Printlevel                                  ...      1
Contraction scheme used                     ... SEGMENTED contraction
Coulomb Range Separation                    ... NOT USED
Exchange Range Separation                   ... NOT USED
Finite Nucleus Model                        ... NOT USED
Auxiliary Coulomb fitting basis             ... AVAILABLE
   # of basis functions in Aux-J            ...    371
   # of shells in Aux-J                     ...    125
   Maximum angular momentum in Aux-J        ...      4
Auxiliary J/K fitting basis                 ... NOT available
Auxiliary Correlation fitting basis         ... NOT available
Auxiliary 'external' fitting basis          ... NOT available
Integral threshold                          ...     2.500000e-11
Primitive cut-off                           ...     2.500000e-12
Primitive pair pre-selection threshold      ...     2.500000e-12

Calculating pre-screening integrals         ... done (  0.2 sec) Dimension = 57
Organizing shell pair data                  ... done (  0.1 sec)
Shell pair information
Total number of shell pairs                 ...      1653
Shell pairs after pre-screening             ...      1511
Total number of primitive shell pairs       ...      5877
Primitive shell pairs kept                  ...      4113
          la=0 lb=0:    490 shell pairs
          la=1 lb=0:    561 shell pairs
          la=1 lb=1:    170 shell pairs
          la=2 lb=0:    171 shell pairs
          la=2 lb=1:    101 shell pairs
          la=2 lb=2:     18 shell pairs

Calculating one electron integrals          ... done (  0.1 sec)
Calculating RI/J V-Matrix + Cholesky decomp.... done (  0.1 sec)
Calculating Nuclear repulsion               ... done (  0.0 sec) ENN=    205.681706041428 Eh

SHARK setup successfully completed in   1.2 seconds

Maximum memory used throughout the entire GTOINT-calculation: 12.7 MB

Diagonalization of the overlap matrix:
Smallest eigenvalue                        ... 1.438e-03
Time for diagonalization                   ...    0.012 sec
Threshold for overlap eigenvalues          ... 1.000e-08
Number of eigenvalues below threshold      ... 0
Time for construction of square roots      ...    0.005 sec
Total time needed                          ...    0.017 sec

-------------------
DFT GRID GENERATION
-------------------

General Integration Accuracy     IntAcc      ... 4.388
Radial Grid Type                 RadialGrid  ... OptM3 with GC (2021)
Angular Grid (max. ang.)         AngularGrid ... 4 (Lebedev-302)
Angular grid pruning method      GridPruning ... 4 (adaptive)
Weight generation scheme         WeightScheme... Becke
Basis function cutoff            BFCut       ... 1.0000e-11
Integration weight cutoff        WCut        ... 1.0000e-14
Angular grids for H and He will be reduced by one unit
Partially contracted basis set               ... off
Rotationally invariant grid construction     ... off

Total number of grid points                  ...    59021
Total number of batches                      ...      929
Average number of points per batch           ...       63
Average number of grid points per atom       ...     4540
Time for grid setup =    3.375 sec

--------------------
COSX GRID GENERATION
--------------------

GRIDX 1
-------
General Integration Accuracy     IntAcc      ... 3.816
Radial Grid Type                 RadialGrid  ... OptM3 with GC (2021)
Angular Grid (max. ang.)         AngularGrid ... 1 (Lebedev-50)
Angular grid pruning method      GridPruning ... 4 (adaptive)
Weight generation scheme         WeightScheme... Becke
Basis function cutoff            BFCut       ... 1.0000e-11
Integration weight cutoff        WCut        ... 1.0000e-14
Angular grids for H and He will be reduced by one unit
Partially contracted basis set               ... on
Rotationally invariant grid construction     ... off

Total number of grid points                  ...     7568
Total number of batches                      ...      125
Average number of points per batch           ...       60
Average number of grid points per atom       ...      582
UseSFitting                                  ... on

GRIDX 2
-------
General Integration Accuracy     IntAcc      ... 4.020
Radial Grid Type                 RadialGrid  ... OptM3 with GC (2021)
Angular Grid (max. ang.)         AngularGrid ... 2 (Lebedev-110)
Angular grid pruning method      GridPruning ... 4 (adaptive)
Weight generation scheme         WeightScheme... Becke
Basis function cutoff            BFCut       ... 1.0000e-11
Integration weight cutoff        WCut        ... 1.0000e-14
Angular grids for H and He will be reduced by one unit
Partially contracted basis set               ... on
Rotationally invariant grid construction     ... off

Total number of grid points                  ...    16396
Total number of batches                      ...      262
[...]
      f-3     :     0.000009
  6 H s       :     0.908843  s :     0.908843
      pz      :     0.011793  p :     0.035844
      px      :     0.011533
      py      :     0.012518
      dz2     :     0.001717  d :     0.004998
      dxz     :     0.000732
      dyz     :     0.000638
      dx2y2   :     0.001240
      dxy     :     0.000671
      f0      :     0.000074  f :     0.000325
      f+1     :     0.000052
      f-1     :     0.000034
      f+2     :     0.000072
      f-2     :     0.000027
      f+3     :     0.000045
      f-3     :     0.000021
  7 H s       :     0.918964  s :     0.918964
      pz      :     0.013692  p :     0.033747
      px      :     0.011788
      py      :     0.008267
      dz2     :     0.000480  d :     0.004693
      dxz     :     0.000225
      dyz     :     0.001682
      dx2y2   :     0.000604
      dxy     :     0.001702
      f0      :     0.000031  f :     0.000320
      f+1     :     0.000002
      f-1     :     0.000066
      f+2     :     0.000064
      f-2     :     0.000021
      f+3     :     0.000106
      f-3     :     0.000031
  8 F s       :     3.923567  s :     3.923567
      pz      :     1.876676  p :     5.293497
      px      :     1.592095
      py      :     1.824725
      dz2     :     0.002301  d :     0.021243
      dxz     :     0.005358
      dyz     :     0.001322
      dx2y2   :     0.006097
      dxy     :     0.006165
      f0      :     0.000220  f :     0.001986
      f+1     :     0.000276
      f-1     :     0.000098
      f+2     :     0.000139
      f-2     :     0.000235
      f+3     :     0.000468
      f-3     :     0.000549
      g0      :     0.000004  g :     0.000062
      g+1     :     0.000008
      g-1     :     0.000002
      g+2     :     0.000004
      g-2     :     0.000007
      g+3     :     0.000001
      g-3     :     0.000007
      g+4     :     0.000013
      g-4     :     0.000016
  9 H s       :     0.883963  s :     0.883963
      pz      :     0.016719  p :     0.037085
      px      :     0.007135
      py      :     0.013232
      dz2     :     0.000620  d :     0.004662
      dxz     :     0.000241
      dyz     :     0.001802
      dx2y2   :     0.000473
      dxy     :     0.001527
      f0      :     0.000037  f :     0.000282
      f+1     :     0.000004
      f-1     :     0.000071
      f+2     :     0.000057
      f-2     :     0.000017
      f+3     :     0.000064
      f-3     :     0.000031
 10 H s       :     0.912401  s :     0.912401
      pz      :     0.015247  p :     0.032189
      px      :     0.009914
      py      :     0.007028
      dz2     :     0.000471  d :     0.004461
      dxz     :     0.000179
      dyz     :     0.001718
      dx2y2   :     0.000432
      dxy     :     0.001661
      f0      :     0.000028  f :     0.000287
      f+1     :     0.000005
      f-1     :     0.000060
      f+2     :     0.000055
      f-2     :     0.000019
      f+3     :     0.000100
      f-3     :     0.000019
 11 H s       :     0.937301  s :     0.937301
      pz      :     0.016276  p :     0.038158
      px      :     0.011829
      py      :     0.010053
      dz2     :     0.000505  d :     0.004743
      dxz     :     0.000203
      dyz     :     0.001802
      dx2y2   :     0.000519
      dxy     :     0.001714
      f0      :     0.000030  f :     0.000291
      f+1     :     0.000004
      f-1     :     0.000061
      f+2     :     0.000056
      f-2     :     0.000018
      f+3     :     0.000097
      f-3     :     0.000024
 12 H s       :     0.925826  s :     0.925826
      pz      :     0.015928  p :     0.036758
      px      :     0.012072
      py      :     0.008757
      dz2     :     0.000497  d :     0.004875
      dxz     :     0.000189
      dyz     :     0.001790
      dx2y2   :     0.000479
      dxy     :     0.001920
      f0      :     0.000029  f :     0.000287
      f+1     :     0.000004
      f-1     :     0.000059
      f+2     :     0.000054
      f-2     :     0.000018
      f+3     :     0.000098
      f-3     :     0.000024


                     *******************************
                     * LOEWDIN POPULATION ANALYSIS *
                     *******************************

----------------------
LOEWDIN ATOMIC CHARGES
----------------------
   0 C :   -0.262656
   1 C :    0.009327
   2 C :    0.020414
   3 C :    0.050014
   4 C :    0.200250
   5 H :   -0.051097
   6 H :   -0.050999
   7 H :   -0.050380
   8 F :    0.383090
   9 H :   -0.084916
  10 H :   -0.050699
  11 H :   -0.051044
  12 H :   -0.061304

-------------------------------
LOEWDIN REDUCED ORBITAL CHARGES
-------------------------------
  0 C s       :     2.647639  s :     2.647639
      pz      :     0.845284  p :     2.641916
      px      :     0.868577
      py      :     0.928055
      dz2     :     0.055459  d :     0.705259
      dxz     :     0.153551
      dyz     :     0.035392
      dx2y2   :     0.251585
      dxy     :     0.209272
      f0      :     0.017902  f :     0.232298
      f+1     :     0.024660
      f-1     :     0.008847
      f+2     :     0.013208
      f-2     :     0.039322
      f+3     :     0.083702
      f-3     :     0.044658
      g0      :     0.001804  g :     0.035544
      g+1     :     0.005712
      g-1     :     0.001431
      g+2     :     0.002554
      g-2     :     0.003889
      g+3     :     0.000611
      g-3     :     0.003976
      g+4     :     0.008963
      g-4     :     0.006604
  1 C s       :     2.611815  s :     2.611815
      pz      :     0.811645  p :     2.770064
      px      :     1.010014
      py      :     0.948406
      dz2     :     0.037174  d :     0.491838
      dxz     :     0.118213
      dyz     :     0.027931
      dx2y2   :     0.166409
      dxy     :     0.142111
      f0      :     0.008348  f :     0.105144
      f+1     :     0.010542
      f-1     :     0.004048
      f+2     :     0.009114
      f-2     :     0.016513
      f+3     :     0.039257
      f-3     :     0.017321
      g0      :     0.000702  g :     0.011811
      g+1     :     0.001820
      g-1     :     0.000626
      g+2     :     0.000883
      g-2     :     0.001170
      g+3     :     0.000366
      g-3     :     0.001252
      g+4     :     0.002932
      g-4     :     0.002061
  2 C s       :     2.601146  s :     2.601146
      pz      :     0.801412  p :     2.741812
      px      :     1.000183
      py      :     0.940217
      dz2     :     0.035906  d :     0.518808
      dxz     :     0.116040
      dyz     :     0.027827
      dx2y2   :     0.196082
      dxy     :     0.142953
      f0      :     0.007647  f :     0.106256
      f+1     :     0.009734
      f-1     :     0.003850
      f+2     :     0.008438
      f-2     :     0.015521
      f+3     :     0.044403
      f-3     :     0.016663
      g0      :     0.000610  g :     0.011564
      g+1     :     0.001734
      g-1     :     0.000614
      g+2     :     0.000913
      g-2     :     0.001109
      g+3     :     0.000374
      g-3     :     0.001133
      g+4     :     0.003198
      g-4     :     0.001878
  3 C s       :     2.610178  s :     2.610178
      pz      :     0.779989  p :     2.714135
      px      :     0.992164
      py      :     0.941982
      dz2     :     0.032798  d :     0.510730
      dxz     :     0.117030
      dyz     :     0.027320
      dx2y2   :     0.196087
      dxy     :     0.137495
      f0      :     0.008338  f :     0.104072
      f+1     :     0.008953
      f-1     :     0.003748
      f+2     :     0.009490
      f-2     :     0.015819
      f+3     :     0.042308
      f-3     :     0.015417
      g0      :     0.000561  g :     0.010870
      g+1     :     0.001764
      g-1     :     0.000575
      g+2     :     0.000847
      g-2     :     0.001068
      g+3     :     0.000426
      g-3     :     0.001081
      g+4     :     0.002865
      g-4     :     0.001683
  4 C s       :     2.558151  s :     2.558151
      pz      :     0.937029  p :     2.781210
      px      :     0.912683
      py      :     0.931498
      dz2     :     0.052150  d :     0.382970
      dxz     :     0.119889
      dyz     :     0.034780
      dx2y2   :     0.104446
      dxy     :     0.071705
      f0      :     0.007873  f :     0.073359
      f+1     :     0.011235
      f-1     :     0.005696
      f+2     :     0.008282
      f-2     :     0.010475
      f+3     :     0.017388
      f-3     :     0.012411
      g0      :     0.000178  g :     0.004060
      g+1     :     0.000578
      g-1     :     0.000232
      g+2     :     0.000352
      g-2     :     0.000320
      g+3     :     0.000114
      g-3     :     0.000621
      g+4     :     0.001223
      g-4     :     0.000440
  5 H s       :     0.786771  s :     0.786771
      pz      :     0.078104  p :     0.191226
      px      :     0.061254
      py      :     0.051868
      dz2     :     0.019694  d :     0.064393
      dxz     :     0.015311
      dyz     :     0.017098
      dx2y2   :     0.006380
      dxy     :     0.005910
      f0      :     0.002378  f :     0.008707
      f+1     :     0.001816
      f-1     :     0.001294
      f+2     :     0.001367
      f-2     :     0.001418
      f+3     :     0.000252
      f-3     :     0.000182
  6 H s       :     0.786692  s :     0.786692
      pz      :     0.070422  p :     0.191215
      px      :     0.062897
      py      :     0.057895
      dz2     :     0.020296  d :     0.064389
      dxz     :     0.012273
      dyz     :     0.009917
      dx2y2   :     0.012992
      dxy     :     0.008912
      f0      :     0.001569  f :     0.008704
      f+1     :     0.001349
      f-1     :     0.001100
      f+2     :     0.001836
      f-2     :     0.001418
      f+3     :     0.000940
      f-3     :     0.000492
  7 H s       :     0.789555  s :     0.789555
      pz      :     0.054633  p :     0.187124
      px      :     0.046989
      py      :     0.085502
      dz2     :     0.007053  d :     0.064832
      dxz     :     0.002429
      dyz     :     0.020651
      dx2y2   :     0.012896
      dxy     :     0.021803
      f0      :     0.000811  f :     0.008870
      f+1     :     0.000123
      f-1     :     0.001629
      f+2     :     0.001631
      f-2     :     0.000582
      f+3     :     0.002551
      f-3     :     0.001542
  8 F s       :     3.471586  s :     3.471586
      pz      :     1.751714  p :     5.078573
      px      :     1.599677
      py      :     1.727182
      dz2     :     0.005219  d :     0.059082
      dxz     :     0.015757
      dyz     :     0.003839
      dx2y2   :     0.017542
      dxy     :     0.016725
      f0      :     0.000915  f :     0.007423
      f+1     :     0.000653
      f-1     :     0.000295
      f+2     :     0.000650
      f-2     :     0.000996
      f+3     :     0.002604
      f-3     :     0.001310
      g0      :     0.000010  g :     0.000247
      g+1     :     0.000036
      g-1     :     0.000010
      g+2     :     0.000014
      g-2     :     0.000018
      g+3     :     0.000005
      g-3     :     0.000035
      g+4     :     0.000074
      g-4     :     0.000044
  9 H s       :     0.828447  s :     0.828447
      pz      :     0.058644  p :     0.185575
      px      :     0.030813
      py      :     0.096118
      dz2     :     0.007362  d :     0.061987
      dxz     :     0.002040
      dyz     :     0.020114
      dx2y2   :     0.014875
      dxy     :     0.017596
      f0      :     0.000818  f :     0.008907
      f+1     :     0.000132
      f-1     :     0.001649
      f+2     :     0.001701
      f-2     :     0.000547
      f+3     :     0.002113
      f-3     :     0.001947
 10 H s       :     0.791065  s :     0.791065
      pz      :     0.054193  p :     0.185807
      px      :     0.039775
      py      :     0.091840
      dz2     :     0.006834  d :     0.064600
      dxz     :     0.001803
      dyz     :     0.019119
      dx2y2   :     0.013881
      dxy     :     0.022963
      f0      :     0.000740  f :     0.009227
      f+1     :     0.000120
      f-1     :     0.001517
      f+2     :     0.001659
      f-2     :     0.000544
      f+3     :     0.002929
      f-3     :     0.001717
 11 H s       :     0.792694  s :     0.792694
      pz      :     0.054227  p :     0.185630
      px      :     0.039853
      py      :     0.091549
      dz2     :     0.006711  d :     0.063671
      dxz     :     0.001873
      dyz     :     0.018602
      dx2y2   :     0.013868
      dxy     :     0.022616
      f0      :     0.000722  f :     0.009049
      f+1     :     0.000122
      f-1     :     0.001466
      f+2     :     0.001599
      f-2     :     0.000544
      f+3     :     0.002879
      f-3     :     0.001717
 12 H s       :     0.798260  s :     0.798260
      pz      :     0.055138  p :     0.190536
      px      :     0.042800
      py      :     0.092598
      dz2     :     0.006680  d :     0.063479
      dxz     :     0.001712
      dyz     :     0.018411
      dx2y2   :     0.013863
      dxy     :     0.022813
      f0      :     0.000713  f :     0.009028
      f+1     :     0.000123
      f-1     :     0.001453
      f+2     :     0.001596
      f-2     :     0.000537
      f+3     :     0.002894
      f-3     :     0.001711


                      *****************************
                      * MAYER POPULATION ANALYSIS *
                      *****************************

  NA   - Mulliken gross atomic population
  ZA   - Total nuclear charge
  QA   - Mulliken gross atomic charge
  VA   - Mayer's total valence
  BVA  - Mayer's bonded valence
  FA   - Mayer's free valence

  ATOM       NA         ZA         QA         VA         BVA        FA
  0 C      5.8742     6.0000     0.1258     3.8393     3.8393     0.0000
  1 C      6.0244     6.0000    -0.0244     3.7251     3.7251    -0.0000
  2 C      6.0394     6.0000    -0.0394     3.7325     3.7325    -0.0000
  3 C      6.0478     6.0000    -0.0478     3.7308     3.7308     0.0000
  4 C      6.0926     6.0000    -0.0926     3.8919     3.8919     0.0000
  5 H      0.9499     1.0000     0.0501     0.9959     0.9959    -0.0000
  6 H      0.9500     1.0000     0.0500     0.9958     0.9958     0.0000
  7 H      0.9577     1.0000     0.0423     1.0106     1.0106     0.0000
  8 F      9.2404     9.0000    -0.2404     1.0308     1.0308    -0.0000
  9 H      0.9260     1.0000     0.0740     1.0135     1.0135     0.0000
 10 H      0.9493     1.0000     0.0507     1.0123     1.0123     0.0000
 11 H      0.9805     1.0000     0.0195     1.0217     1.0217    -0.0000
 12 H      0.9677     1.0000     0.0323     1.0181     1.0181    -0.0000

  Mayer bond orders larger than 0.100000
B(  0-C ,  1-C ) :   1.7133 B(  0-C ,  8-F ) :   0.9912 B(  0-C ,  9-H ) :   0.9822 
B(  1-C ,  2-C ) :   1.0316 B(  1-C , 10-H ) :   0.9557 B(  2-C ,  3-C ) :   1.6459 
B(  2-C , 11-H ) :   0.9693 B(  3-C ,  4-C ) :   0.9808 B(  3-C , 12-H ) :   0.9669 
B(  4-C ,  5-H ) :   0.9568 B(  4-C ,  6-H ) :   0.9566 B(  4-C ,  7-H ) :   0.9646 


-------
TIMINGS
-------

Total SCF time: 0 days 0 hours 17 min 50 sec 

Total time                  ....    1070.177 sec
Sum of individual times     ....    1066.607 sec  ( 99.7%)

Fock matrix formation       ....    1053.555 sec  ( 98.4%)
  Split-RI-J                ....      54.867 sec  (  5.2% of F)
  Chain of spheres X        ....     901.021 sec  ( 85.5% of F)
  XC integration            ....      96.969 sec  (  9.2% of F)
    Basis function eval.    ....      21.313 sec  ( 22.0% of XC)
    Density eval.           ....      34.797 sec  ( 35.9% of XC)
    XC-Functional eval.     ....       1.554 sec  (  1.6% of XC)
    XC-Potential eval.      ....      35.595 sec  ( 36.7% of XC)
Diagonalization             ....       0.391 sec  (  0.0%)
Density matrix formation    ....       0.123 sec  (  0.0%)
Population analysis         ....       0.139 sec  (  0.0%)
Initial guess               ....       0.303 sec  (  0.0%)
Orbital Transformation      ....       0.000 sec  (  0.0%)
Orbital Orthonormalization  ....       0.000 sec  (  0.0%)
DIIS solution               ....       0.127 sec  (  0.0%)
SOSCF solution              ....       1.650 sec  (  0.2%)
Grid generation             ....      10.319 sec  (  1.0%)

Maximum memory used throughout the entire SCF-calculation: 472.3 MB


-------------------------------------------------------------------------------
                          DFT DISPERSION CORRECTION                            
                                                                               
                                 DFTD4 V2.5                                    
-------------------------------------------------------------------------------
The B3LYP functional is recognized
Active option DFTDOPT                   ...         5   

Starting D4
-------------------------   ----------------
Dispersion correction           -0.013273351
-------------------------   ----------------


-------------------------   --------------------
FINAL SINGLE POINT ENERGY      -294.535231287387
-------------------------   --------------------


                            ***************************************
                            *     ORCA property calculations      *
                            ***************************************

                                    ---------------------
                                    Active property flags
                                    ---------------------
   (+) Dipole Moment


------------------------------------------------------------------------------
                       ORCA ELECTRIC PROPERTIES CALCULATION
------------------------------------------------------------------------------

Dipole Moment Calculation                       ... on
Quadrupole Moment Calculation                   ... off
Polarizability Calculation                      ... off
GBWName                                         ... second_job.gbw
Electron density                                ... second_job.scfp
The origin for moment calculation is the CENTER OF MASS  = (-9.318638, -2.693003 -0.009838)

-------------
DIPOLE MOMENT
-------------
                                X             Y             Z
Electronic contribution:     12.45383       1.62200      -0.01708
Nuclear contribution   :    -13.10598      -1.87130       0.06027
                        -----------------------------------------
Total Dipole Moment    :     -0.65215      -0.24930       0.04319
                        -----------------------------------------
Magnitude (a.u.)       :      0.69951
Magnitude (Debye)      :      1.77800



--------------------
Rotational spectrum 
--------------------
 
Rotational constants in cm-1:     0.894242     0.039340     0.037950 
Rotational constants in MHz : 26808.705355  1179.393866  1137.707994 

 Dipole components along the rotational axes: 
x,y,z [a.u.] :     0.667203    -0.210120     0.000443 
x,y,z [Debye]:     1.695894    -0.534081     0.001125 

 

Timings for individual modules:

Sum of individual times         ...     1075.472 sec (=  17.925 min)
GTO integral calculation        ...        5.175 sec (=   0.086 min)   0.5 %
SCF iterations                  ...     1070.297 sec (=  17.838 min)  99.5 %



                             ****ORCA TERMINATED NORMALLY****
TOTAL RUN TIME: 0 days 0 hours 45 minutes 54 seconds 887 msec
