
                                 *****************
                                 * O   R   C   A *
                                 *****************

                                            #,                                       
                                            ###                                      
                                            ####                                     
                                            #####                                    
                                            ######                                   
                                           ########,                                 
                                     ,,################,,,,,                         
                               ,,#################################,,                 
                          ,,##########################################,,             
                       ,#########################################, ''#####,          
                    ,#############################################,,   '####,        
                  ,##################################################,,,,####,       
                ,###########''''           ''''###############################       
              ,#####''   ,,,,##########,,,,          '''####'''          '####       
            ,##' ,,,,###########################,,,                        '##       
           ' ,,###''''                  '''############,,,                           
         ,,##''                                '''############,,,,        ,,,,,,###''
      ,#''                                            '''#######################'''  
     '                                                          ''''####''''         
             ,#######,   #######,   ,#######,      ##                                
            ,#'     '#,  ##    ##  ,#'     '#,    #''#        ######   ,####,        
            ##       ##  ##   ,#'  ##            #'  '#       #        #'  '#        
            ##       ##  #######   ##           ,######,      #####,   #    #        
            '#,     ,#'  ##    ##  '#,     ,#' ,#      #,         ##   #,  ,#        
             '#######'   ##     ##  '#######'  #'      '#     #####' # '####'        



                  #######################################################
                  #                        -***-                        #
                  #          Department of theory and spectroscopy      #
                  #    Directorship and core code : Frank Neese         #
                  #        Max Planck Institute fuer Kohlenforschung    #
                  #                Kaiser Wilhelm Platz 1               #
                  #                 D-45470 Muelheim/Ruhr               #
                  #                      Germany                        #
                  #                                                     #
                  #                  All rights reserved                #
                  #                        -***-                        #
                  #######################################################



                         Program Version 5.0.4 -  RELEASE  -

 With contributions from (in alphabetic order):
   Daniel Aravena         : Magnetic Suceptibility
   Michael Atanasov       : Ab Initio Ligand Field Theory (pilot matlab implementation)
   Alexander A. Auer      : GIAO ZORA, VPT2 properties, NMR spectrum
   Ute Becker             : Parallelization
   Giovanni Bistoni       : ED, misc. LED, open-shell LED, HFLD
   Martin Brehm           : Molecular dynamics
   Dmytro Bykov           : SCF Hessian
   Vijay G. Chilkuri      : MRCI spin determinant printing, contributions to CSF-ICE
   Dipayan Datta          : RHF DLPNO-CCSD density
   Achintya Kumar Dutta   : EOM-CC, STEOM-CC
   Dmitry Ganyushin       : Spin-Orbit,Spin-Spin,Magnetic field MRCI
   Miquel Garcia          : C-PCM and meta-GGA Hessian, CC/C-PCM, Gaussian charge scheme
   Yang Guo               : DLPNO-NEVPT2, F12-NEVPT2, CIM, IAO-localization
   Andreas Hansen         : Spin unrestricted coupled pair/coupled cluster methods
   Benjamin Helmich-Paris : MC-RPA, TRAH-SCF, COSX integrals
   Lee Huntington         : MR-EOM, pCC
   Robert Izsak           : Overlap fitted RIJCOSX, COSX-SCS-MP3, EOM
   Marcus Kettner         : VPT2
   Christian Kollmar      : KDIIS, OOCD, Brueckner-CCSD(T), CCSD density, CASPT2, CASPT2-K
   Simone Kossmann        : Meta GGA functionals, TD-DFT gradient, OOMP2, MP2 Hessian
   Martin Krupicka        : Initial AUTO-CI
   Lucas Lang             : DCDCAS
   Marvin Lechner         : AUTO-CI (C++ implementation), FIC-MRCC
   Dagmar Lenk            : GEPOL surface, SMD
   Dimitrios Liakos       : Extrapolation schemes; Compound Job, initial MDCI parallelization
   Dimitrios Manganas     : Further ROCIS development; embedding schemes
   Dimitrios Pantazis     : SARC Basis sets
   Anastasios Papadopoulos: AUTO-CI, single reference methods and gradients
   Taras Petrenko         : DFT Hessian,TD-DFT gradient, ASA, ECA, R-Raman, ABS, FL, XAS/XES, NRVS
   Peter Pinski           : DLPNO-MP2, DLPNO-MP2 Gradient
   Christoph Reimann      : Effective Core Potentials
   Marius Retegan         : Local ZFS, SOC
   Christoph Riplinger    : Optimizer, TS searches, QM/MM, DLPNO-CCSD(T), (RO)-DLPNO pert. Triples
   Tobias Risthaus        : Range-separated hybrids, TD-DFT gradient, RPA, STAB
   Michael Roemelt        : Original ROCIS implementation
   Masaaki Saitow         : Open-shell DLPNO-CCSD energy and density
   Barbara Sandhoefer     : DKH picture change effects
   Avijit Sen             : IP-ROCIS
   Kantharuban Sivalingam : CASSCF convergence, NEVPT2, FIC-MRCI
   Bernardo de Souza      : ESD, SOC TD-DFT
   Georgi Stoychev        : AutoAux, RI-MP2 NMR, DLPNO-MP2 response
   Willem Van den Heuvel  : Paramagnetic NMR
   Boris Wezisla          : Elementary symmetry handling
   Frank Wennmohs         : Technical directorship


 We gratefully acknowledge several colleagues who have allowed us to
 interface, adapt or use parts of their codes:
   Stefan Grimme, W. Hujo, H. Kruse, P. Pracht,  : VdW corrections, initial TS optimization,
                  C. Bannwarth, S. Ehlert          DFT functionals, gCP, sTDA/sTD-DF
   Ed Valeev, F. Pavosevic, A. Kumar             : LibInt (2-el integral package), F12 methods
   Garnet Chan, S. Sharma, J. Yang, R. Olivares  : DMRG
   Ulf Ekstrom                                   : XCFun DFT Library
   Mihaly Kallay                                 : mrcc  (arbitrary order and MRCC methods)
   Jiri Pittner, Ondrej Demel                    : Mk-CCSD
   Frank Weinhold                                : gennbo (NPA and NBO analysis)
   Christopher J. Cramer and Donald G. Truhlar   : smd solvation model
   Lars Goerigk                                  : TD-DFT with DH, B97 family of functionals
   V. Asgeirsson, H. Jonsson                     : NEB implementation
   FAccTs GmbH                                   : IRC, NEB, NEB-TS, DLPNO-Multilevel, CI-OPT
                                                   MM, QMMM, 2- and 3-layer-ONIOM, Crystal-QMMM,
                                                   LR-CPCM, SF, NACMEs, symmetry and pop. for TD-DFT,
                                                   nearIR, NL-DFT gradient (VV10), updates on ESD,
                                                   ML-optimized integration grids
   S Lehtola, MJT Oliveira, MAL Marques          : LibXC Library
   Liviu Ungur et al                             : ANISO software


 Your calculation uses the libint2 library for the computation of 2-el integrals
 For citations please refer to: http://libint.valeyev.net

 Your ORCA version has been built with support for libXC version: 5.1.0
 For citations please refer to: https://tddft.org/programs/libxc/

 This ORCA versions uses:
   CBLAS   interface :  Fast vector & matrix operations
   LAPACKE interface :  Fast linear algebra routines
   Shared memory     :  Shared parallel matrices


================================================================================

----- Orbital basis set information -----
Your calculation utilizes the basis: def2-QZVP
   F. Weigend and R. Ahlrichs, Phys. Chem. Chem. Phys. 7, 3297 (2005).

----- AuxJ basis set information -----
Your calculation utilizes the auxiliary basis: def2/J
   F. Weigend, Phys. Chem. Chem. Phys. 8, 1057 (2006).

================================================================================
                                        WARNINGS
                       Please study these warnings very carefully!
================================================================================


INFO   : the flag for use of the SHARK integral package has been found!


WARNING: TRAH does not support fractional occupations!
  ===> : Turning TRAH off
================================================================================
                                       INPUT FILE
================================================================================
NAME = anilin_fod.inp
|  1> !B3LYP DEF2-QZVP
|  2> 
|  3> %scf
|  4> smeartemp 5000
|  5> convergence tight
|  6> end
|  7> 
|  8> * xyz 0 1
|  9>   C   -3.86516734357010      0.94434157945665     -0.07538725943809
| 10>   C   -4.92272831379506      0.26873722983356     -0.70264597592121
| 11>   C   -5.03057771819703     -1.11798142899817     -0.59784356576840
| 12>   C   -4.08352665954933     -1.84223577131705      0.13553018590779
| 13>   C   -3.02981102252337     -1.17199643200787      0.76088165488684
| 14>   C   -2.91953321612422      0.21863970639081      0.65722704147654
| 15>   C   -3.81073419980518      2.46478525764726     -0.19518116082199
| 16>   H   -5.65406019384117      0.84349861132032     -1.27491300280147
| 17>   H   -5.85623938274783     -1.63850776567522     -1.09027562821825
| 18>   H   -4.16802260279406     -2.92913883238131      0.21698779894580
| 19>   H   -2.28611135457989     -1.73328106107773      1.33282673748350
| 20>   H   -2.09792478362700      0.74948053847094      1.13911505725274
| 21>   O   -4.89378187167171      3.07132909731433      0.44720048381772
| 22>   H   -4.93072682950342      2.71104471332091      1.34348100678890
| 23>   O   -2.59608443456263      2.90295951283218      0.34520695932434
| 24>   H   -2.62116462808870      3.87067963083761      0.29505823914507
| 25>   O   -3.95270938377184      2.89080295116375     -1.51804130322301
| 26>   H   -3.24608606124737      2.46925246286899     -2.02593726883681
| 27> **                         ****END OF INPUT****
================================================================================

                       ****************************
                       * Single Point Calculation *
                       ****************************

---------------------------------
CARTESIAN COORDINATES (ANGSTROEM)
---------------------------------
  C     -3.865167    0.944342   -0.075387
  C     -4.922728    0.268737   -0.702646
  C     -5.030578   -1.117981   -0.597844
  C     -4.083527   -1.842236    0.135530
  C     -3.029811   -1.171996    0.760882
  C     -2.919533    0.218640    0.657227
  C     -3.810734    2.464785   -0.195181
  H     -5.654060    0.843499   -1.274913
  H     -5.856239   -1.638508   -1.090276
  H     -4.168023   -2.929139    0.216988
  H     -2.286111   -1.733281    1.332827
  H     -2.097925    0.749481    1.139115
  O     -4.893782    3.071329    0.447200
  H     -4.930727    2.711045    1.343481
  O     -2.596084    2.902960    0.345207
  H     -2.621165    3.870680    0.295058
  O     -3.952709    2.890803   -1.518041
  H     -3.246086    2.469252   -2.025937

----------------------------
CARTESIAN COORDINATES (A.U.)
----------------------------
  NO LB      ZA    FRAG     MASS         X           Y           Z
   0 C     6.0000    0    12.011   -7.304108    1.784547   -0.142461
   1 C     6.0000    0    12.011   -9.302608    0.507840   -1.327808
   2 C     6.0000    0    12.011   -9.506414   -2.112679   -1.129761
   3 C     6.0000    0    12.011   -7.716747   -3.481321    0.256115
   4 C     6.0000    0    12.011   -5.725513   -2.214752    1.437858
   5 C     6.0000    0    12.011   -5.517118    0.413169    1.241979
   6 C     6.0000    0    12.011   -7.201244    4.657769   -0.368839
   7 H     1.0000    0     1.008  -10.684625    1.593981   -2.409236
   8 H     1.0000    0     1.008  -11.066689   -3.096331   -2.060322
   9 H     1.0000    0     1.008   -7.876421   -5.535270    0.410048
  10 H     1.0000    0     1.008   -4.320124   -3.275427    2.518678
  11 H     1.0000    0     1.008   -3.964503    1.416313    2.152615
  12 O     8.0000    0    15.999   -9.247907    5.803971    0.845086
  13 H     1.0000    0     1.008   -9.317723    5.123132    2.538811
  14 O     8.0000    0    15.999   -4.905889    5.485798    0.652347
  15 H     1.0000    0     1.008   -4.953283    7.314524    0.557579
  16 O     8.0000    0    15.999   -7.469538    5.462826   -2.868682
  17 H     1.0000    0     1.008   -6.134214    4.666211   -3.828467

--------------------------------
INTERNAL COORDINATES (ANGSTROEM)
--------------------------------
 C      0   0   0     0.000000000000     0.00000000     0.00000000
 C      1   0   0     1.402971824513     0.00000000     0.00000000
 C      2   1   0     1.394848980340   120.22763019     0.00000000
 C      3   2   1     1.399745376739   120.09630738     0.05558802
 C      4   3   2     1.396639493722   119.78517406   359.94463727
 C      5   4   3     1.398847505229   120.22365614     0.05578502
 C      1   2   3     1.526126641042   118.13499631   181.34013878
 H      2   1   3     1.092101879165   119.05374392   180.25029110
 H      3   2   1     1.093231076951   119.86197587   180.09111313
 H      4   3   2     1.093221464891   120.07765090   180.03543261
 H      5   4   3     1.093275266544   120.07212216   180.14944323
 H      6   5   4     1.090434988939   120.70453933   180.23468441
 O      7   1   2     1.397691620617   111.63117384    65.22807164
 H     13   7   1     0.966689476055   107.09783566    51.43966920
 O      7   1   2     1.399782143945   108.21065635   187.71899960
 H     15   7   1     0.969343147206   105.66917547   183.01997477
 O      7   1   2     1.396999278598   111.99472172   310.38055645
 H     17   7   1     0.966943455433   106.86800751   302.42020382

---------------------------
INTERNAL COORDINATES (A.U.)
---------------------------
 C      0   0   0     0.000000000000     0.00000000     0.00000000
 C      1   0   0     2.651232521937     0.00000000     0.00000000
 C      2   1   0     2.635882571022   120.22763019     0.00000000
 C      3   2   1     2.645135419258   120.09630738     0.05558802
 C      4   3   2     2.639266150954   119.78517406   359.94463727
 C      5   4   3     2.643438688002   120.22365614     0.05578502
 C      1   2   3     2.883961397251   118.13499631   181.34013878
 H      2   1   3     2.063773461962   119.05374392   180.25029110
 H      3   2   1     2.065907336530   119.86197587   180.09111313
 H      4   3   2     2.065889172367   120.07765090   180.03543261
 H      5   4   3     2.065990842757   120.07212216   180.14944323
 H      6   5   4     2.060623495940   120.70453933   180.23468441
 O      7   1   2     2.641254382643   111.63117384    65.22807164
 H     13   7   1     1.826778366288   107.09783566    51.43966920
 O      7   1   2     2.645204899208   108.21065635   187.71899960
 H     15   7   1     1.831793078013   105.66917547   183.01997477
 O      7   1   2     2.639946045837   111.99472172   310.38055645
 H     17   7   1     1.827258317755   106.86800751   302.42020382

---------------------
BASIS SET INFORMATION
---------------------
There are 3 groups of distinct atoms

 Group   1 Type C   : 15s8p3d2f1g contracted to 7s4p3d2f1g pattern {8211111/5111/111/11/1}
 Group   2 Type H   : 7s3p2d1f contracted to 4s3p2d1f pattern {4111/111/11/1}
 Group   3 Type O   : 15s8p3d2f1g contracted to 7s4p3d2f1g pattern {8211111/5111/111/11/1}

Atom   0C    basis set group =>   1
Atom   1C    basis set group =>   1
Atom   2C    basis set group =>   1
Atom   3C    basis set group =>   1
Atom   4C    basis set group =>   1
Atom   5C    basis set group =>   1
Atom   6C    basis set group =>   1
Atom   7H    basis set group =>   2
Atom   8H    basis set group =>   2
Atom   9H    basis set group =>   2
Atom  10H    basis set group =>   2
Atom  11H    basis set group =>   2
Atom  12O    basis set group =>   3
Atom  13H    basis set group =>   2
Atom  14O    basis set group =>   3
Atom  15H    basis set group =>   2
Atom  16O    basis set group =>   3
Atom  17H    basis set group =>   2
---------------------------------
AUXILIARY/J BASIS SET INFORMATION
---------------------------------
There are 3 groups of distinct atoms

 Group   1 Type C   : 12s5p4d2f1g contracted to 6s4p3d1f1g pattern {711111/2111/211/2/1}
 Group   2 Type H   : 5s2p1d contracted to 3s1p1d pattern {311/2/1}
 Group   3 Type O   : 12s5p4d2f1g contracted to 6s4p3d1f1g pattern {711111/2111/211/2/1}

Atom   0C    basis set group =>   1
Atom   1C    basis set group =>   1
Atom   2C    basis set group =>   1
Atom   3C    basis set group =>   1
Atom   4C    basis set group =>   1
Atom   5C    basis set group =>   1
Atom   6C    basis set group =>   1
Atom   7H    basis set group =>   2
Atom   8H    basis set group =>   2
Atom   9H    basis set group =>   2
Atom  10H    basis set group =>   2
Atom  11H    basis set group =>   2
Atom  12O    basis set group =>   3
Atom  13H    basis set group =>   2
Atom  14O    basis set group =>   3
Atom  15H    basis set group =>   2
Atom  16O    basis set group =>   3
Atom  17H    basis set group =>   2
------------------------------------------------------------------------------
                           ORCA GTO INTEGRAL CALCULATION
                           -- RI-GTO INTEGRALS CHOSEN --
------------------------------------------------------------------------------
------------------------------------------------------------------------------
                   ___                                                        
                  /   \      - P O W E R E D   B Y -                         
                 /     \                                                     
                 |  |  |   _    _      __       _____    __    __             
                 |  |  |  | |  | |    /  \     |  _  \  |  |  /  |          
                  \  \/   | |  | |   /    \    | | | |  |  | /  /          
                 / \  \   | |__| |  /  /\  \   | |_| |  |  |/  /          
                |  |  |   |  __  | /  /__\  \  |    /   |      \           
                |  |  |   | |  | | |   __   |  |    \   |  |\   \          
                \     /   | |  | | |  |  |  |  | |\  \  |  | \   \       
                 \___/    |_|  |_| |__|  |__|  |_| \__\ |__|  \__/        
                                                                              
                      - O R C A' S   B I G   F R I E N D -                    
                                      &                                       
                       - I N T E G R A L  F E E D E R -                       
                                                                              
 v1 FN, 2020, v2 2021                                                         
------------------------------------------------------------------------------


Reading SHARK input file anilin_fod.SHARKINP.tmp ... ok
----------------------
SHARK INTEGRAL PACKAGE
----------------------

Number of atoms                             ...     18
Number of basis functions                   ...    810
Number of shells                            ...    250
Maximum angular momentum                    ...      4
Integral batch strategy                     ... SHARK/LIBINT Hybrid
RI-J (if used) integral strategy            ... SPLIT-RIJ (Revised 2003 algorithm where possible)
Printlevel                                  ...      1
Contraction scheme used                     ... SEGMENTED contraction
Coulomb Range Separation                    ... NOT USED
Exchange Range Separation                   ... NOT USED
Finite Nucleus Model                        ... NOT USED
Auxiliary Coulomb fitting basis             ... AVAILABLE
   # of basis functions in Aux-J            ...    578
   # of shells in Aux-J                     ...    190
   Maximum angular momentum in Aux-J        ...      4
Auxiliary J/K fitting basis                 ... NOT available
Auxiliary Correlation fitting basis         ... NOT available
Auxiliary 'external' fitting basis          ... NOT available
Integral threshold                          ...     2.500000e-11
Primitive cut-off                           ...     2.500000e-12
Primitive pair pre-selection threshold      ...     2.500000e-12

Calculating pre-screening integrals         ... done (  1.0 sec) Dimension = 250
Organizing shell pair data                  ... done (  1.1 sec)
Shell pair information
Total number of shell pairs                 ...     31375
Shell pairs after pre-screening             ...     25353
Total number of primitive shell pairs       ...     78253
Primitive shell pairs kept                  ...     47381
          la=0 lb=0:   3947 shell pairs
          la=1 lb=0:   5452 shell pairs
          la=1 lb=1:   1854 shell pairs
          la=2 lb=0:   3626 shell pairs
          la=2 lb=1:   2519 shell pairs
          la=2 lb=2:    864 shell pairs
          la=3 lb=0:   2182 shell pairs
          la=3 lb=1:   1518 shell pairs
          la=3 lb=2:   1030 shell pairs
          la=3 lb=3:    324 shell pairs
          la=4 lb=0:    825 shell pairs
          la=4 lb=1:    560 shell pairs
          la=4 lb=2:    378 shell pairs
          la=4 lb=3:    228 shell pairs
          la=4 lb=4:     46 shell pairs

Calculating one electron integrals          ... done (  0.3 sec)
Calculating RI/J V-Matrix + Cholesky decomp.... done (  0.0 sec)
Calculating Nuclear repulsion               ... done (  0.0 sec) ENN=    527.801535938430 Eh

SHARK setup successfully completed in   4.8 seconds

Maximum memory used throughout the entire GTOINT-calculation: 841.2 MB
-------------------------------------------------------------------------------
                                 ORCA SCF
-------------------------------------------------------------------------------

------------
SCF SETTINGS
------------
Hamiltonian:
 Density Functional     Method          .... DFT(GTOs)
 Exchange Functional    Exchange        .... B88
   X-Alpha parameter    XAlpha          ....  0.666667
   Becke's b parameter  XBeta           ....  0.004200
 Correlation Functional Correlation     .... LYP
 LDA part of GGA corr.  LDAOpt          .... VWN-5
 Gradients option       PostSCFGGA      .... off
 Hybrid DFT is turned on
   Fraction HF Exchange ScalHFX         ....  0.200000
   Scaling of DF-GGA-X  ScalDFX         ....  0.720000
   Scaling of DF-GGA-C  ScalDFC         ....  0.810000
   Scaling of DF-LDA-C  ScalLDAC        ....  1.000000
   Perturbative correction              ....  0.000000
   Density functional embedding theory  .... OFF
   NL short-range parameter             ....  4.800000
 RI-approximation to the Coulomb term is turned on
   Number of AuxJ basis functions       .... 578
   RIJ-COSX (HFX calculated with COS-X)).... on


General Settings:
 Integral files         IntName         .... anilin_fod
 Hartree-Fock type      HFTyp           .... RHF
 Total Charge           Charge          ....    0
 Multiplicity           Mult            ....    1
 Number of Electrons    NEL             ....   74
 Basis Dimension        Dim             ....  810
 Nuclear Repulsion      ENuc            ....    527.8015359384 Eh

Convergence Acceleration:
 DIIS                   CNVDIIS         .... on
   Start iteration      DIISMaxIt       ....    12
   Startup error        DIISStart       ....  0.200000
   # of expansion vecs  DIISMaxEq       ....     5
   Bias factor          DIISBfac        ....   1.050
   Max. coefficient     DIISMaxC        ....  10.000
 Trust-Rad. Augm. Hess. CNVTRAH         .... off
 SOSCF                  CNVSOSCF        .... on
   Start iteration      SOSCFMaxIt      ....   150
   Startup grad/error   SOSCFStart      ....  0.003300
 Level Shifting         CNVShift        .... on
   Level shift para.    LevelShift      ....    0.2500
   Turn off err/grad.   ShiftErr        ....    0.0010
 Zerner damping         CNVZerner       .... off
 Static damping         CNVDamp         .... on
   Fraction old density DampFac         ....    0.7000
   Max. Damping (<1)    DampMax         ....    0.9800
   Min. Damping (>=0)   DampMin         ....    0.0000
   Turn off err/grad.   DampErr         ....    0.1000
 Fernandez-Rico         CNVRico         .... off

SCF Procedure:
 Maximum # iterations   MaxIter         ....   125
 SCF integral mode      SCFMode         .... Direct
   Integral package                     .... SHARK and LIBINT hybrid scheme
 Reset frequency        DirectResetFreq ....    20
 Integral Threshold     Thresh          ....  2.500e-11 Eh
 Primitive CutOff       TCut            ....  2.500e-12 Eh

Convergence Tolerance:
 Convergence Check Mode ConvCheckMode   .... Total+1el-Energy
 Convergence forced     ConvForced      .... 0
 Energy Change          TolE            ....  1.000e-08 Eh
 1-El. energy change                    ....  1.000e-05 Eh
 Orbital Gradient       TolG            ....  1.000e-05
 Orbital Rotation angle TolX            ....  1.000e-05
 DIIS Error             TolErr          ....  5.000e-07


Diagonalization of the overlap matrix:
Smallest eigenvalue                        ... 6.402e-06
Time for diagonalization                   ...    0.170 sec
Threshold for overlap eigenvalues          ... 1.000e-08
Number of eigenvalues below threshold      ... 0
Time for construction of square roots      ...    0.114 sec
Total time needed                          ...    0.286 sec

Time for model grid setup =    0.850 sec

------------------------------
INITIAL GUESS: MODEL POTENTIAL
------------------------------
Loading Hartree-Fock densities                     ... done
Calculating cut-offs                               ... done
Initializing the effective Hamiltonian             ... done
Setting up the integral package (SHARK)            ... done
Starting the Coulomb interaction                   ... done (   2.3 sec)
Reading the grid                                   ... done
Mapping shells                                     ... done
Starting the XC term evaluation                    ... done (   2.8 sec)
  promolecular density results
     # of electrons  =     73.994241214
     EX              =    -62.972740363
     EC              =     -2.544767379
     EX+EC           =    -65.517507742
Transforming the Hamiltonian                       ... done (   0.1 sec)
Diagonalizing the Hamiltonian                      ... done (   0.2 sec)
Back transforming the eigenvectors                 ... done (   0.0 sec)
Now organizing SCF variables                       ... done
                      ------------------
                      INITIAL GUESS DONE (   6.2 sec)
                      ------------------
-------------------
DFT GRID GENERATION
-------------------

General Integration Accuracy     IntAcc      ... 4.388
Radial Grid Type                 RadialGrid  ... OptM3 with GC (2021)
Angular Grid (max. ang.)         AngularGrid ... 4 (Lebedev-302)
Angular grid pruning method      GridPruning ... 4 (adaptive)
Weight generation scheme         WeightScheme... Becke
Basis function cutoff            BFCut       ... 1.0000e-11
Integration weight cutoff        WCut        ... 1.0000e-14
Angular grids for H and He will be reduced by one unit
Partially contracted basis set               ... off
Rotationally invariant grid construction     ... off

Total number of grid points                  ...    88594
Total number of batches                      ...     1394
Average number of points per batch           ...       63
Average number of grid points per atom       ...     4922
Time for grid setup =    2.377 sec

--------------------
COSX GRID GENERATION
--------------------

GRIDX 1
-------
General Integration Accuracy     IntAcc      ... 3.816
Radial Grid Type                 RadialGrid  ... OptM3 with GC (2021)
Angular Grid (max. ang.)         AngularGrid ... 1 (Lebedev-50)
Angular grid pruning method      GridPruning ... 4 (adaptive)
Weight generation scheme         WeightScheme... Becke
Basis function cutoff            BFCut       ... 1.0000e-11
Integration weight cutoff        WCut        ... 1.0000e-14
Angular grids for H and He will be reduced by one unit
Partially contracted basis set               ... on
Rotationally invariant grid construction     ... off

Total number of grid points                  ...    11320
Total number of batches                      ...      188
Average number of points per batch           ...       60
Average number of grid points per atom       ...      629
UseSFitting                                  ... on

GRIDX 2
-------
General Integration Accuracy     IntAcc      ... 4.020
Radial Grid Type                 RadialGrid  ... OptM3 with GC (2021)
Angular Grid (max. ang.)         AngularGrid ... 2 (Lebedev-110)
Angular grid pruning method      GridPruning ... 4 (adaptive)
Weight generation scheme         WeightScheme... Becke
Basis function cutoff            BFCut       ... 1.0000e-11
Integration weight cutoff        WCut        ... 1.0000e-14
Angular grids for H and He will be reduced by one unit
Partially contracted basis set               ... on
Rotationally invariant grid construction     ... off

Total number of grid points                  ...    27087
Total number of batches                      ...      433
Average number of points per batch           ...       62
Average number of grid points per atom       ...     1505
UseSFitting                                  ... on

GRIDX 3
-------
General Integration Accuracy     IntAcc      ... 4.338
Radial Grid Type                 RadialGrid  ... OptM3 with GC (2021)
Angular Grid (max. ang.)         AngularGrid ... 3 (Lebedev-194)
Angular grid pruning method      GridPruning ... 4 (adaptive)
Weight generation scheme         WeightScheme... Becke
Basis function cutoff            BFCut       ... 1.0000e-11
Integration weight cutoff        WCut        ... 1.0000e-14
Angular grids for H and He will be reduced by one unit
Partially contracted basis set               ... on
Rotationally invariant grid construction     ... off

Total number of grid points                  ...    58468
Total number of batches                      ...      925
Average number of points per batch           ...       63
Average number of grid points per atom       ...     3248
UseSFitting                                  ... on

Time for X-Grid setup             =    6.841 sec


Warning: Fractional occupation numbers cannot be used with CNVRico or SOSCF

--------------
SCF ITERATIONS
--------------
ITER       Energy         Delta-E        Max-DP      RMS-DP      [F,P]     Damp
               ***  Starting incremental Fock matrix formation  ***
  0   -496.8445091436   0.000000000000 0.03394864  0.00036470  0.2976512 0.7000
  1   -497.0137519402  -0.169242796560 0.04284925  0.00029198  0.1237289 0.7000
                               ***Turning on DIIS***
  2   -497.0766498410  -0.062897900765 0.06439504  0.00049311  0.0331439 0.0000
  3   -497.1780897687  -0.101439927725 0.03435718  0.00022305  0.0663831 0.0000
  4   -497.1992791880  -0.021189419353 0.01743388  0.00010639  0.0077562 0.0000
  5   -497.2001165806  -0.000837392607 0.00532529  0.00003949  0.0045931 0.0000
  6   -497.2001987310  -0.000082150382 0.00629028  0.00002793  0.0009022 0.0000
               *** Restarting incremental Fock matrix formation ***
                                   *** Resetting DIIS ***
  7   -497.2002565170  -0.000057785964 0.00077554  0.00000877  0.0008848 0.0000
  8   -497.2002541163   0.000002400651 0.00023212  0.00000211  0.0015972 0.0000
  9   -497.2002576452  -0.000003528841 0.00010691  0.00000120  0.0002724 0.0000
 10   -497.2002578055  -0.000000160286 0.00003486  0.00000031  0.0000337 0.0000
 11   -497.2002578413  -0.000000035825 0.00003522  0.00000025  0.0000165 0.0000
 12   -497.2002578497  -0.000000008420 0.00001584  0.00000016  0.0000088 0.0000
 13   -497.2002578437   0.000000006030 0.00007421  0.00000049  0.0000021 0.0000
                            ***DIIS convergence achieved***
Fermi smearing:E(HOMO(Eh)) = -0.257478 MUE = -0.142011 gap=   6.281 eV

N_FOD =  0.005028

               *****************************************************
               *                     SUCCESS                       *
               *           SCF CONVERGED AFTER  14 CYCLES          *
               *****************************************************

Fermi smearing:E(HOMO(Eh)) = -0.257478 MUE = -0.142011 gap=   6.281 eV

N_FOD =  0.005028
Old exchange energy                            =    -12.760519812 Eh
New exchange energy                            =    -12.760517420 Eh
Exchange energy change after final integration =      0.000002392 Eh
Total energy after final integration           =   -497.200255455 Eh
Final COS-X integration done in                =   443.567 sec

----------------
TOTAL SCF ENERGY
----------------

Total Energy       :         -497.20025545 Eh          -13529.50678 eV

Components:
Nuclear Repulsion  :          527.80153594 Eh           14362.20995 eV
Electronic Energy  :        -1025.00179139 Eh          -27891.71673 eV
One Electron Energy:        -1724.37939823 Eh          -46922.74893 eV
Two Electron Energy:          699.37760684 Eh           19031.03220 eV
Max COSX asymmetry :            0.00000127 Eh               0.00003 eV

Virial components:
Potential Energy   :         -992.22428498 Eh          -26999.79544 eV
Kinetic Energy     :          495.02402952 Eh           13470.28866 eV
Virial Ratio       :            2.00439620


DFT components:
N(Alpha)           :       36.999968151233 electrons
N(Beta)            :       36.999968151233 electrons
N(Total)           :       73.999936302466 electrons
E(X)               :      -50.770038589025 Eh       
E(C)               :       -3.002560540862 Eh       
E(XC)              :      -53.772599129886 Eh       
DFET-embed. en.    :        0.000000000000 Eh       

---------------
SCF CONVERGENCE
---------------

  Last Energy change         ...   -2.9949e-09  Tolerance :   1.0000e-08
  Last MAX-Density change    ...    0.0000e+00  Tolerance :   1.0000e-07
  Last RMS-Density change    ...    0.0000e+00  Tolerance :   5.0000e-09
  Last DIIS Error            ...    6.9689e-07  Tolerance :   5.0000e-07

             **** THE GBW FILE WAS UPDATED (anilin_fod.gbw) ****
             **** DENSITY anilin_fod.scfp WAS UPDATED ****
             **** ENERGY FILE WAS UPDATED (anilin_fod.en.tmp) ****
             **** THE GBW FILE WAS UPDATED (anilin_fod.gbw) ****
             **** DENSITY anilin_fod.scfp WAS UPDATED ****
----------------
ORBITAL ENERGIES
----------------

  NO   OCC          E(Eh)            E(eV) 
   0   2.0000     -19.143961      -520.9337 
   1   2.0000     -19.143721      -520.9271 
   2   2.0000     -19.142996      -520.9074 
   3   2.0000     -10.337840      -281.3069 
   4   2.0000     -10.191559      -277.3264 
   5   2.0000     -10.185789      -277.1694 
   6   2.0000     -10.185076      -277.1500 
   7   2.0000     -10.184855      -277.1440 
   8   2.0000     -10.184276      -277.1282 
   9   2.0000     -10.184216      -277.1266 
  10   2.0000      -1.115350       -30.3502 
  11   2.0000      -1.017798       -27.6957 
  12   2.0000      -1.015053       -27.6210 
  13   2.0000      -0.861571       -23.4446 
  14   2.0000      -0.766071       -20.8458 
  15   2.0000      -0.750920       -20.4336 
  16   2.0000      -0.671156       -18.2631 
  17   2.0000      -0.622833       -16.9481 
  18   2.0000      -0.608589       -16.5606 
  19   2.0000      -0.573419       -15.6035 
  20   2.0000      -0.528161       -14.3720 
  21   2.0000      -0.505941       -13.7673 
  22   2.0000      -0.483804       -13.1650 
  23   2.0000      -0.453269       -12.3341 
  24   2.0000      -0.452379       -12.3099 
  25   2.0000      -0.432296       -11.7634 
  26   2.0000      -0.428084       -11.6488 
  27   2.0000      -0.423377       -11.5207 
  28   2.0000      -0.380136       -10.3440 
  29   2.0000      -0.376531       -10.2459 
  30   2.0000      -0.353029        -9.6064 
  31   2.0000      -0.349940        -9.5224 
  32   2.0000      -0.342763        -9.3270 
  33   1.9999      -0.307503        -8.3676 
  34   1.9999      -0.301028        -8.1914 
  35   1.9990      -0.262452        -7.1417 
  36   1.9986      -0.257478        -7.0063 
  37   0.0014      -0.026649        -0.7252 
  38   0.0009      -0.019678        -0.5355 
  39   0.0002       0.006388         0.1738 
  40   0.0000       0.029550         0.8041 
  41   0.0000       0.041321         1.1244 
  42   0.0000       0.042172         1.1475 
  43   0.0000       0.050013         1.3609 
  44   0.0000       0.066051         1.7973 
  45   0.0000       0.087784         2.3887 
  46   0.0000       0.106492         2.8978 
  47   0.0000       0.113255         3.0818 
  48   0.0000       0.118738         3.2310 
  49   0.0000       0.128136         3.4868 
  50   0.0000       0.145664         3.9637 
  51   0.0000       0.150511         4.0956 
  52   0.0000       0.155522         4.2320 
  53   0.0000       0.166874         4.5409 
  54   0.0000       0.173030         4.7084 
  55   0.0000       0.182118         4.9557 
  56   0.0000       0.186947         5.0871 
  57   0.0000       0.190243         5.1768 
  58   0.0000       0.199961         5.4412 
  59   0.0000       0.208850         5.6831 
  60   0.0000       0.215381         5.8608 
  61   0.0000       0.232113         6.3161 
  62   0.0000       0.237573         6.4647 
  63   0.0000       0.241742         6.5781 
  64   0.0000       0.252155         6.8615 
  65   0.0000       0.257034         6.9943 
  66   0.0000       0.263907         7.1813 
  67   0.0000       0.269212         7.3256 
  68   0.0000       0.281474         7.6593 
  69   0.0000       0.284928         7.7533 
  70   0.0000       0.289985         7.8909 
  71   0.0000       0.292648         7.9634 
  72   0.0000       0.294151         8.0043 
  73   0.0000       0.300403         8.1744 
  74   0.0000       0.310638         8.4529 
  75   0.0000       0.324852         8.8397 
  76   0.0000       0.331990         9.0339 
  77   0.0000       0.334174         9.0933 
  78   0.0000       0.339571         9.2402 
  79   0.0000       0.356680         9.7058 
  80   0.0000       0.362393         9.8612 
  81   0.0000       0.365118         9.9354 
  82   0.0000       0.378688        10.3046 
  83   0.0000       0.384994        10.4762 
  84   0.0000       0.399960        10.8835 
  85   0.0000       0.406927        11.0730 
  86   0.0000       0.419727        11.4214 
  87   0.0000       0.428797        11.6682 
  88   0.0000       0.432987        11.7822 
  89   0.0000       0.438395        11.9293 
  90   0.0000       0.446971        12.1627 
  91   0.0000       0.449332        12.2270 
  92   0.0000       0.460799        12.5390 
  93   0.0000       0.466914        12.7054 
  94   0.0000       0.482249        13.1227 
  95   0.0000       0.486285        13.2325 
  96   0.0000       0.503481        13.7004 
  97   0.0000       0.509576        13.8663 
  98   0.0000       0.518642        14.1130 
  99   0.0000       0.531430        14.4609 
 100   0.0000       0.536384        14.5957 
 101   0.0000       0.551482        15.0066 
 102   0.0000       0.561288        15.2734 
 103   0.0000       0.568153        15.4602 
 104   0.0000       0.579026        15.7561 
 105   0.0000       0.585748        15.9390 
 106   0.0000       0.588830        16.0229 
 107   0.0000       0.616343        16.7715 
 108   0.0000       0.622836        16.9482 
 109   0.0000       0.635467        17.2919 
 110   0.0000       0.638368        17.3709 
 111   0.0000       0.658801        17.9269 
 112   0.0000       0.670703        18.2508 
 113   0.0000       0.684291        18.6205 
 114   0.0000       0.692614        18.8470 
 115   0.0000       0.703772        19.1506 
 116   0.0000       0.712503        19.3882 
 117   0.0000       0.721497        19.6329 
 118   0.0000       0.734892        19.9974 
 119   0.0000       0.741792        20.1852 
 120   0.0000       0.748589        20.3701 
 121   0.0000       0.755020        20.5452 
 122   0.0000       0.759333        20.6625 
 123   0.0000       0.762921        20.7601 
 124   0.0000       0.764383        20.7999 
 125   0.0000       0.777121        21.1465 
 126   0.0000       0.787778        21.4365 
 127   0.0000       0.806503        21.9461 
 128   0.0000       0.812650        22.1133 
 129   0.0000       0.815437        22.1892 
 130   0.0000       0.833440        22.6791 
 131   0.0000       0.850320        23.1384 
 132   0.0000       0.859449        23.3868 
 133   0.0000       0.864860        23.5340 
 134   0.0000       0.867003        23.5924 
 135   0.0000       0.876670        23.8554 
 136   0.0000       0.887304        24.1448 
 137   0.0000       0.894151        24.3311 
 138   0.0000       0.906861        24.6769 
 139   0.0000       0.917909        24.9776 
 140   0.0000       0.920966        25.0608 
 141   0.0000       0.928105        25.2550 
 142   0.0000       0.931960        25.3599 
 143   0.0000       0.938863        25.5478 
 144   0.0000       0.944265        25.6947 
 145   0.0000       0.960947        26.1487 
 146   0.0000       0.970941        26.4207 
 147   0.0000       0.988968        26.9112 
 148   0.0000       1.000381        27.2217 
 149   0.0000       1.011231        27.5170 
 150   0.0000       1.017220        27.6800 
 151   0.0000       1.025290        27.8996 
 152   0.0000       1.030348        28.0372 
 153   0.0000       1.043626        28.3985 
 154   0.0000       1.046499        28.4767 
 155   0.0000       1.047697        28.5093 
 156   0.0000       1.066499        29.0209 
 157   0.0000       1.082587        29.4587 
 158   0.0000       1.085790        29.5458 
 159   0.0000       1.102437        29.9988 
 160   0.0000       1.107294        30.1310 
 161   0.0000       1.120690        30.4955 
 162   0.0000       1.128004        30.6945 
 163   0.0000       1.144414        31.1411 
 164   0.0000       1.158890        31.5350 
 165   0.0000       1.166783        31.7498 
 166   0.0000       1.175378        31.9837 
 167   0.0000       1.180020        32.1100 
 168   0.0000       1.203262        32.7424 
 169   0.0000       1.204972        32.7890 
 170   0.0000       1.241966        33.7956 
 171   0.0000       1.262505        34.3545 
 172   0.0000       1.277075        34.7510 
 173   0.0000       1.280570        34.8461 
 174   0.0000       1.287280        35.0287 
 175   0.0000       1.306456        35.5505 
 176   0.0000       1.315082        35.7852 
 177   0.0000       1.343119        36.5481 
 178   0.0000       1.361340        37.0439 
 179   0.0000       1.365359        37.1533 
 180   0.0000       1.369329        37.2613 
 181   0.0000       1.383295        37.6414 
 182   0.0000       1.402551        38.1654 
 183   0.0000       1.406509        38.2731 
 184   0.0000       1.418267        38.5930 
 185   0.0000       1.423460        38.7343 
 186   0.0000       1.437142        39.1066 
 187   0.0000       1.447141        39.3787 
 188   0.0000       1.474349        40.1191 
 189   0.0000       1.491569        40.5876 
 190   0.0000       1.500116        40.8202 
 191   0.0000       1.514189        41.2032 
 192   0.0000       1.522611        41.4324 
 193   0.0000       1.540666        41.9236 
 194   0.0000       1.541668        41.9509 
 195   0.0000       1.555519        42.3278 
 196   0.0000       1.574634        42.8480 
 197   0.0000       1.582130        43.0519 
 198   0.0000       1.600986        43.5651 
 199   0.0000       1.618733        44.0480 
 200   0.0000       1.623915        44.1890 
 201   0.0000       1.627066        44.2747 
 202   0.0000       1.652823        44.9756 
 203   0.0000       1.671684        45.4888 
 204   0.0000       1.682016        45.7700 
 205   0.0000       1.696603        46.1669 
 206   0.0000       1.713805        46.6350 
 207   0.0000       1.722448        46.8702 
 208   0.0000       1.733287        47.1651 
 209   0.0000       1.739705        47.3398 
 210   0.0000       1.749689        47.6115 
 211   0.0000       1.754319        47.7375 
 212   0.0000       1.765039        48.0291 
 213   0.0000       1.772774        48.2396 
 214   0.0000       1.788552        48.6690 
 215   0.0000       1.810969        49.2790 
 216   0.0000       1.815743        49.4089 
 217   0.0000       1.842603        50.1398 
 218   0.0000       1.861293        50.6483 
 219   0.0000       1.868471        50.8437 
 220   0.0000       1.877171        51.0804 
 221   0.0000       1.889860        51.4257 
 222   0.0000       1.903091        51.7858 
 223   0.0000       1.911971        52.0274 
 224   0.0000       1.918529        52.2058 
 225   0.0000       1.941852        52.8405 
 226   0.0000       1.949115        53.0381 
 227   0.0000       1.959459        53.3196 
 228   0.0000       1.967828        53.5473 
 229   0.0000       1.978586        53.8401 
 230   0.0000       1.980072        53.8805 
 231   0.0000       1.992221        54.2111 
 232   0.0000       1.994592        54.2756 
 233   0.0000       2.005492        54.5722 
 234   0.0000       2.020733        54.9869 
 235   0.0000       2.039052        55.4854 
 236   0.0000       2.042372        55.5758 
 237   0.0000       2.071073        56.3568 
 238   0.0000       2.075764        56.4844 
 239   0.0000       2.089283        56.8523 
 240   0.0000       2.101571        57.1867 
 241   0.0000       2.106530        57.3216 
 242   0.0000       2.113721        57.5173 
 243   0.0000       2.119342        57.6702 
 244   0.0000       2.126931        57.8767 
 245   0.0000       2.134088        58.0715 
 246   0.0000       2.146413        58.4069 
 247   0.0000       2.157765        58.7158 
 248   0.0000       2.168614        59.0110 
 249   0.0000       2.174830        59.1801 
 250   0.0000       2.191448        59.6323 
 251   0.0000       2.201936        59.9177 
 252   0.0000       2.206970        60.0547 
 253   0.0000       2.214604        60.2624 
 254   0.0000       2.227743        60.6200 
 255   0.0000       2.234574        60.8059 
 256   0.0000       2.247997        61.1711 
 257   0.0000       2.252718        61.2996 
 258   0.0000       2.266364        61.6709 
 259   0.0000       2.274848        61.9018 
 260   0.0000       2.285802        62.1998 
 261   0.0000       2.286060        62.2068 
 262   0.0000       2.295668        62.4683 
 263   0.0000       2.306108        62.7524 
 264   0.0000       2.327812        63.3430 
 265   0.0000       2.337702        63.6121 
 266   0.0000       2.351674        63.9923 
 267   0.0000       2.361774        64.2672 
 268   0.0000       2.376001        64.6543 
 269   0.0000       2.395052        65.1727 
 270   0.0000       2.396383        65.2089 
 271   0.0000       2.401406        65.3456 
 272   0.0000       2.412416        65.6452 
 273   0.0000       2.427226        66.0482 
 274   0.0000       2.435479        66.2728 
 275   0.0000       2.442793        66.4718 
 276   0.0000       2.450220        66.6739 
 277   0.0000       2.458081        66.8878 
 278   0.0000       2.461926        66.9924 
 279   0.0000       2.475389        67.3587 
 280   0.0000       2.489079        67.7313 
 281   0.0000       2.503523        68.1243 
 282   0.0000       2.506511        68.2056 
 283   0.0000       2.525172        68.7134 
 284   0.0000       2.530867        68.8684 
 285   0.0000       2.543349        69.2081 
 286   0.0000       2.560470        69.6739 
 287   0.0000       2.564660        69.7879 
 288   0.0000       2.572666        70.0058 
 289   0.0000       2.579759        70.1988 
 290   0.0000       2.591626        70.5217 
 291   0.0000       2.604482        70.8716 
 292   0.0000       2.608695        70.9862 
 293   0.0000       2.626741        71.4773 
 294   0.0000       2.629659        71.5566 
 295   0.0000       2.640007        71.8382 
 296   0.0000       2.642161        71.8969 
 297   0.0000       2.661750        72.4299 
 298   0.0000       2.666792        72.5671 
 299   0.0000       2.670609        72.6710 
 300   0.0000       2.680017        72.9270 
 301   0.0000       2.692384        73.2635 
 302   0.0000       2.705731        73.6267 
 303   0.0000       2.718143        73.9644 
 304   0.0000       2.726815        74.2004 
 305   0.0000       2.736278        74.4579 
 306   0.0000       2.748803        74.7987 
 307   0.0000       2.762406        75.1689 
 308   0.0000       2.772488        75.4432 
 309   0.0000       2.781609        75.6914 
 310   0.0000       2.784900        75.7810 
 311   0.0000       2.794321        76.0374 
 312   0.0000       2.804663        76.3188 
 313   0.0000       2.823781        76.8390 
 314   0.0000       2.827699        76.9456 
 315   0.0000       2.845344        77.4258 
 316   0.0000       2.857270        77.7503 
 317   0.0000       2.868688        78.0610 
 318   0.0000       2.890156        78.6452 
 319   0.0000       2.912580        79.2553 
 320   0.0000       2.913440        79.2787 
 321   0.0000       2.927067        79.6496 
 322   0.0000       2.943213        80.0889 
 323   0.0000       2.960757        80.5663 
 324   0.0000       2.970951        80.8437 
 325   0.0000       2.987378        81.2907 
 326   0.0000       2.994636        81.4882 
 327   0.0000       3.017929        82.1220 
 328   0.0000       3.029283        82.4310 
 329   0.0000       3.045825        82.8811 
 330   0.0000       3.059995        83.2667 
 331   0.0000       3.087666        84.0197 
 332   0.0000       3.113281        84.7167 
 333   0.0000       3.127503        85.1037 
 334   0.0000       3.133137        85.2570 
 335   0.0000       3.144118        85.5558 
 336   0.0000       3.155463        85.8645 
 337   0.0000       3.182974        86.6131 
 338   0.0000       3.185105        86.6711 
 339   0.0000       3.210090        87.3510 
 340   0.0000       3.220267        87.6279 
 341   0.0000       3.241681        88.2106 
 342   0.0000       3.264297        88.8260 
 343   0.0000       3.286436        89.4285 
 344   0.0000       3.296128        89.6922 
 345   0.0000       3.316940        90.2585 
 346   0.0000       3.321390        90.3796 
 347   0.0000       3.352259        91.2196 
 348   0.0000       3.360940        91.4558 
 349   0.0000       3.385365        92.1205 
 350   0.0000       3.405554        92.6698 
 351   0.0000       3.407981        92.7359 
 352   0.0000       3.423758        93.1652 
 353   0.0000       3.436227        93.5045 
 354   0.0000       3.448900        93.8493 
 355   0.0000       3.458616        94.1137 
 356   0.0000       3.465122        94.2908 
 357   0.0000       3.485386        94.8422 
 358   0.0000       3.509467        95.4974 
 359   0.0000       3.518157        95.7339 
 360   0.0000       3.521638        95.8286 
 361   0.0000       3.545773        96.4854 
 362   0.0000       3.555277        96.7440 
 363   0.0000       3.568518        97.1043 
 364   0.0000       3.590658        97.7068 
 365   0.0000       3.630195        98.7826 
 366   0.0000       3.636846        98.9636 
 367   0.0000       3.671064        99.8947 
 368   0.0000       3.683851       100.2427 
 369   0.0000       3.691038       100.4382 
 370   0.0000       3.728784       101.4654 
 371   0.0000       3.760419       102.3262 
 372   0.0000       3.775560       102.7382 
 373   0.0000       3.793443       103.2248 
 374   0.0000       3.816625       103.8556 
 375   0.0000       3.823429       104.0408 
 376   0.0000       3.842181       104.5511 
 377   0.0000       3.863379       105.1279 
 378   0.0000       3.889620       105.8419 
 379   0.0000       3.963659       107.8566 
 380   0.0000       3.967355       107.9572 
 381   0.0000       3.984269       108.4175 
 382   0.0000       3.998285       108.7989 
 383   0.0000       4.021057       109.4185 
 384   0.0000       4.040790       109.9555 
 385   0.0000       4.056267       110.3766 
 386   0.0000       4.070401       110.7613 
 387   0.0000       4.084703       111.1504 
 388   0.0000       4.093837       111.3990 
 389   0.0000       4.109081       111.8138 
 390   0.0000       4.138971       112.6271 
 391   0.0000       4.151621       112.9713 
 392   0.0000       4.179187       113.7215 
 393   0.0000       4.181453       113.7831 
 394   0.0000       4.208500       114.5191 
 395   0.0000       4.236863       115.2909 
 396   0.0000       4.252585       115.7187 
 397   0.0000       4.258466       115.8788 
 398   0.0000       4.277171       116.3877 
 399   0.0000       4.306626       117.1892 
 400   0.0000       4.313192       117.3679 
 401   0.0000       4.354167       118.4829 
 402   0.0000       4.365908       118.8024 
 403   0.0000       4.415931       120.1636 
 404   0.0000       4.434391       120.6659 
 405   0.0000       4.441073       120.8477 
 406   0.0000       4.447015       121.0094 
 407   0.0000       4.472536       121.7039 
 408   0.0000       4.503604       122.5493 
 409   0.0000       4.506016       122.6149 
 410   0.0000       4.530520       123.2817 
 411   0.0000       4.538100       123.4880 
 412   0.0000       4.550249       123.8186 
 413   0.0000       4.580310       124.6366 
 414   0.0000       4.598422       125.1294 
 415   0.0000       4.620222       125.7226 
 416   0.0000       4.628920       125.9593 
 417   0.0000       4.653140       126.6184 
 418   0.0000       4.718172       128.3880 
 419   0.0000       4.754195       129.3682 
 420   0.0000       4.778619       130.0328 
 421   0.0000       4.793230       130.4304 
 422   0.0000       4.812015       130.9416 
 423   0.0000       4.826033       131.3230 
 424   0.0000       4.839524       131.6901 
 425   0.0000       4.857561       132.1810 
 426   0.0000       4.863448       132.3411 
 427   0.0000       4.887246       132.9887 
 428   0.0000       4.907327       133.5352 
 429   0.0000       4.947475       134.6276 
 430   0.0000       4.974799       135.3712 
 431   0.0000       5.019288       136.5818 
 432   0.0000       5.038510       137.1048 
 433   0.0000       5.047022       137.3364 
 434   0.0000       5.059165       137.6669 
 435   0.0000       5.076546       138.1398 
 436   0.0000       5.082133       138.2919 
 437   0.0000       5.090133       138.5096 
 438   0.0000       5.131261       139.6287 
 439   0.0000       5.156756       140.3225 
 440   0.0000       5.163838       140.5152 
 441   0.0000       5.174840       140.8146 
 442   0.0000       5.201666       141.5445 
 443   0.0000       5.220930       142.0687 
 444   0.0000       5.228709       142.2804 
 445   0.0000       5.253429       142.9531 
 446   0.0000       5.263977       143.2401 
 447   0.0000       5.275650       143.5577 
 448   0.0000       5.292402       144.0136 
 449   0.0000       5.318474       144.7230 
 450   0.0000       5.337868       145.2508 
 451   0.0000       5.359306       145.8341 
 452   0.0000       5.367974       146.0700 
 453   0.0000       5.393331       146.7600 
 454   0.0000       5.398316       146.8956 
 455   0.0000       5.416682       147.3954 
 456   0.0000       5.425848       147.6448 
 457   0.0000       5.435630       147.9110 
 458   0.0000       5.451217       148.3352 
 459   0.0000       5.467337       148.7738 
 460   0.0000       5.491188       149.4228 
 461   0.0000       5.521007       150.2342 
 462   0.0000       5.532739       150.5535 
 463   0.0000       5.542840       150.8283 
 464   0.0000       5.549066       150.9978 
 465   0.0000       5.557824       151.2361 
 466   0.0000       5.589496       152.0979 
 467   0.0000       5.599316       152.3651 
 468   0.0000       5.621580       152.9710 
 469   0.0000       5.636568       153.3788 
 470   0.0000       5.674132       154.4010 
 471   0.0000       5.688326       154.7872 
 472   0.0000       5.709120       155.3530 
 473   0.0000       5.721702       155.6954 
 474   0.0000       5.736687       156.1032 
 475   0.0000       5.767939       156.9536 
 476   0.0000       5.775535       157.1603 
 477   0.0000       5.806215       157.9951 
 478   0.0000       5.811093       158.1279 
 479   0.0000       5.828563       158.6033 
 480   0.0000       5.837773       158.8539 
 481   0.0000       5.858059       159.4059 
 482   0.0000       5.874476       159.8526 
 483   0.0000       5.876897       159.9185 
 484   0.0000       5.884427       160.1234 
 485   0.0000       5.888700       160.2397 
 486   0.0000       5.901986       160.6012 
 487   0.0000       5.921047       161.1199 
 488   0.0000       5.925782       161.2487 
 489   0.0000       5.940439       161.6476 
 490   0.0000       5.957284       162.1059 
 491   0.0000       5.976958       162.6413 
 492   0.0000       5.980481       162.7372 
 493   0.0000       5.998244       163.2205 
 494   0.0000       6.002567       163.3382 
 495   0.0000       6.019890       163.8095 
 496   0.0000       6.027809       164.0250 
 497   0.0000       6.040099       164.3595 
 498   0.0000       6.055576       164.7806 
 499   0.0000       6.059775       164.8949 
 500   0.0000       6.088074       165.6649 
 501   0.0000       6.092853       165.7950 
 502   0.0000       6.095950       165.8792 
 503   0.0000       6.116709       166.4441 
 504   0.0000       6.118777       166.5004 
 505   0.0000       6.137785       167.0176 
 506   0.0000       6.144317       167.1954 
 507   0.0000       6.166244       167.7920 
 508   0.0000       6.172998       167.9758 
 509   0.0000       6.189803       168.4331 
 510   0.0000       6.208681       168.9468 
 511   0.0000       6.229711       169.5191 
 512   0.0000       6.234408       169.6469 
 513   0.0000       6.243642       169.8981 
 514   0.0000       6.248484       170.0299 
 515   0.0000       6.266723       170.5262 
 516   0.0000       6.279994       170.8873 
 517   0.0000       6.288995       171.1322 
 518   0.0000       6.295168       171.3002 
 519   0.0000       6.315422       171.8514 
 520   0.0000       6.316741       171.8873 
 521   0.0000       6.317227       171.9005 
 522   0.0000       6.341273       172.5548 
 523   0.0000       6.342463       172.5872 
 524   0.0000       6.397077       174.0733 
 525   0.0000       6.401364       174.1900 
 526   0.0000       6.412302       174.4876 
 527   0.0000       6.425485       174.8463 
 528   0.0000       6.443206       175.3286 
 529   0.0000       6.454959       175.6484 
 530   0.0000       6.466390       175.9594 
 531   0.0000       6.484959       176.4647 
 532   0.0000       6.515410       177.2933 
 533   0.0000       6.533662       177.7900 
 534   0.0000       6.540559       177.9777 
 535   0.0000       6.555698       178.3896 
 536   0.0000       6.561502       178.5475 
 537   0.0000       6.585790       179.2084 
 538   0.0000       6.589827       179.3183 
 539   0.0000       6.595569       179.4746 
 540   0.0000       6.625685       180.2941 
 541   0.0000       6.633770       180.5141 
 542   0.0000       6.638772       180.6502 
 543   0.0000       6.649573       180.9441 
 544   0.0000       6.655716       181.1112 
 545   0.0000       6.671897       181.5515 
 546   0.0000       6.686486       181.9485 
 547   0.0000       6.699060       182.2907 
 548   0.0000       6.710781       182.6096 
 549   0.0000       6.718126       182.8095 
 550   0.0000       6.731255       183.1668 
 551   0.0000       6.742501       183.4728 
 552   0.0000       6.745285       183.5485 
 553   0.0000       6.769636       184.2112 
 554   0.0000       6.770397       184.2319 
 555   0.0000       6.812200       185.3694 
 556   0.0000       6.821075       185.6109 
 557   0.0000       6.836540       186.0317 
 558   0.0000       6.847525       186.3306 
 559   0.0000       6.864294       186.7869 
 560   0.0000       6.900455       187.7709 
 561   0.0000       6.909155       188.0077 
 562   0.0000       6.915612       188.1834 
 563   0.0000       6.927779       188.5145 
 564   0.0000       6.952041       189.1747 
 565   0.0000       6.956643       189.2999 
 566   0.0000       6.964952       189.5260 
 567   0.0000       6.973863       189.7685 
 568   0.0000       7.005369       190.6258 
 569   0.0000       7.032993       191.3775 
 570   0.0000       7.036747       191.4796 
 571   0.0000       7.043172       191.6544 
 572   0.0000       7.066064       192.2774 
 573   0.0000       7.093965       193.0366 
 574   0.0000       7.132137       194.0753 
 575   0.0000       7.149775       194.5553 
 576   0.0000       7.178044       195.3245 
 577   0.0000       7.186439       195.5529 
 578   0.0000       7.206125       196.0886 
 579   0.0000       7.217172       196.3892 
 580   0.0000       7.223213       196.5536 
 581   0.0000       7.238845       196.9790 
 582   0.0000       7.293833       198.4753 
 583   0.0000       7.303471       198.7376 
 584   0.0000       7.328748       199.4254 
 585   0.0000       7.344876       199.8642 
 586   0.0000       7.355541       200.1544 
 587   0.0000       7.374792       200.6783 
 588   0.0000       7.394244       201.2076 
 589   0.0000       7.400549       201.3792 
 590   0.0000       7.416400       201.8105 
 591   0.0000       7.430451       202.1928 
 592   0.0000       7.448035       202.6713 
 593   0.0000       7.450165       202.7293 
 594   0.0000       7.465706       203.1522 
 595   0.0000       7.486492       203.7178 
 596   0.0000       7.497901       204.0282 
 597   0.0000       7.509385       204.3408 
 598   0.0000       7.512606       204.4284 
 599   0.0000       7.523283       204.7189 
 600   0.0000       7.536008       205.0652 
 601   0.0000       7.545952       205.3358 
 602   0.0000       7.576324       206.1623 
 603   0.0000       7.605445       206.9547 
 604   0.0000       7.641196       207.9275 
 605   0.0000       7.655076       208.3052 
 606   0.0000       7.668271       208.6643 
 607   0.0000       7.684303       209.1005 
 608   0.0000       7.709702       209.7917 
 609   0.0000       7.722352       210.1359 
 610   0.0000       7.734734       210.4728 
 611   0.0000       7.777167       211.6275 
 612   0.0000       7.807223       212.4453 
 613   0.0000       7.825441       212.9411 
 614   0.0000       7.830421       213.0766 
 615   0.0000       7.858403       213.8380 
 616   0.0000       7.864925       214.0155 
 617   0.0000       7.876954       214.3428 
 618   0.0000       7.902046       215.0256 
 619   0.0000       7.914790       215.3724 
 620   0.0000       7.931892       215.8377 
 621   0.0000       7.956350       216.5033 
 622   0.0000       7.958538       216.5628 
 623   0.0000       7.967836       216.8158 
 624   0.0000       8.000381       217.7014 
 625   0.0000       8.023248       218.3237 
 626   0.0000       8.071232       219.6294 
 627   0.0000       8.085645       220.0216 
 628   0.0000       8.094147       220.2529 
 629   0.0000       8.112489       220.7521 
 630   0.0000       8.119263       220.9364 
 631   0.0000       8.126837       221.1425 
 632   0.0000       8.133874       221.3340 
 633   0.0000       8.159060       222.0193 
 634   0.0000       8.175064       222.4548 
 635   0.0000       8.198668       223.0971 
 636   0.0000       8.212399       223.4707 
 637   0.0000       8.220504       223.6913 
 638   0.0000       8.240162       224.2262 
 639   0.0000       8.243454       224.3158 
 640   0.0000       8.251183       224.5261 
 641   0.0000       8.271527       225.0797 
 642   0.0000       8.282356       225.3744 
 643   0.0000       8.293349       225.6735 
 644   0.0000       8.301355       225.8914 
 645   0.0000       8.312323       226.1898 
 646   0.0000       8.322781       226.4744 
 647   0.0000       8.348424       227.1722 
 648   0.0000       8.363485       227.5820 
 649   0.0000       8.369934       227.7575 
 650   0.0000       8.378901       228.0015 
 651   0.0000       8.392063       228.3596 
 652   0.0000       8.397073       228.4960 
 653   0.0000       8.421301       229.1553 
 654   0.0000       8.442854       229.7417 
 655   0.0000       8.446773       229.8484 
 656   0.0000       8.462743       230.2829 
 657   0.0000       8.476446       230.6558 
 658   0.0000       8.492405       231.0901 
 659   0.0000       8.512725       231.6430 
 660   0.0000       8.513522       231.6647 
 661   0.0000       8.532319       232.1762 
 662   0.0000       8.589693       233.7374 
 663   0.0000       8.603432       234.1113 
 664   0.0000       8.612002       234.3445 
 665   0.0000       8.635657       234.9882 
 666   0.0000       8.644157       235.2195 
 667   0.0000       8.653005       235.4602 
 668   0.0000       8.662234       235.7114 
 669   0.0000       8.674577       236.0472 
 670   0.0000       8.684603       236.3201 
 671   0.0000       8.699256       236.7188 
 672   0.0000       8.719678       237.2745 
 673   0.0000       8.727974       237.5002 
 674   0.0000       8.758408       238.3284 
 675   0.0000       8.784875       239.0486 
 676   0.0000       8.795048       239.3254 
 677   0.0000       8.811928       239.7847 
 678   0.0000       8.838613       240.5109 
 679   0.0000       8.854223       240.9357 
 680   0.0000       8.881979       241.6909 
 681   0.0000       8.890853       241.9324 
 682   0.0000       8.906546       242.3594 
 683   0.0000       8.930118       243.0009 
 684   0.0000       8.957985       243.7592 
 685   0.0000       9.029971       245.7180 
 686   0.0000       9.066713       246.7178 
 687   0.0000       9.125085       248.3062 
 688   0.0000       9.202519       250.4133 
 689   0.0000       9.223525       250.9849 
 690   0.0000       9.270495       252.2630 
 691   0.0000       9.323679       253.7102 
 692   0.0000       9.346809       254.3396 
 693   0.0000       9.373094       255.0549 
 694   0.0000       9.434100       256.7149 
 695   0.0000       9.469063       257.6663 
 696   0.0000       9.505624       258.6612 
 697   0.0000       9.549910       259.8663 
 698   0.0000       9.601237       261.2629 
 699   0.0000       9.614685       261.6289 
 700   0.0000       9.658273       262.8150 
 701   0.0000       9.673649       263.2334 
 702   0.0000       9.697907       263.8935 
 703   0.0000       9.712182       264.2819 
 704   0.0000       9.717304       264.4213 
 705   0.0000       9.778088       266.0753 
 706   0.0000       9.781700       266.1736 
 707   0.0000       9.822266       267.2774 
 708   0.0000       9.856819       268.2177 
 709   0.0000       9.883462       268.9427 
 710   0.0000       9.924889       270.0699 
 711   0.0000       9.967769       271.2368 
 712   0.0000       9.979908       271.5671 
 713   0.0000      10.025616       272.8109 
 714   0.0000      10.040319       273.2110 
 715   0.0000      10.059512       273.7332 
 716   0.0000      10.079258       274.2706 
 717   0.0000      10.115494       275.2566 
 718   0.0000      10.164662       276.5945 
 719   0.0000      10.213658       277.9278 
 720   0.0000      10.238802       278.6120 
 721   0.0000      10.260408       279.1999 
 722   0.0000      10.287587       279.9395 
 723   0.0000      10.301210       280.3102 
 724   0.0000      10.357832       281.8509 
 725   0.0000      10.374605       282.3074 
 726   0.0000      10.388882       282.6958 
 727   0.0000      10.434074       283.9256 
 728   0.0000      10.514833       286.1232 
 729   0.0000      10.651711       289.8478 
 730   0.0000      10.666768       290.2575 
 731   0.0000      10.673893       290.4514 
 732   0.0000      10.693770       290.9923 
 733   0.0000      10.731784       292.0267 
 734   0.0000      10.787143       293.5331 
 735   0.0000      10.847343       295.1712 
 736   0.0000      10.897414       296.5337 
 737   0.0000      10.978002       298.7266 
 738   0.0000      10.983194       298.8679 
 739   0.0000      11.163862       303.7841 
 740   0.0000      11.219155       305.2887 
 741   0.0000      11.244570       305.9803 
 742   0.0000      11.310311       307.7692 
 743   0.0000      11.331529       308.3466 
 744   0.0000      11.377079       309.5860 
 745   0.0000      11.431569       311.0688 
 746   0.0000      11.574037       314.9456 
 747   0.0000      11.600992       315.6790 
 748   0.0000      11.652243       317.0737 
 749   0.0000      11.672889       317.6355 
 750   0.0000      11.686016       317.9927 
 751   0.0000      11.702509       318.4415 
 752   0.0000      11.754075       319.8446 
 753   0.0000      11.810189       321.3716 
 754   0.0000      11.825253       321.7815 
 755   0.0000      11.997644       326.4725 
 756   0.0000      12.038086       327.5730 
 757   0.0000      12.076558       328.6199 
 758   0.0000      12.082075       328.7700 
 759   0.0000      12.132531       330.1430 
 760   0.0000      12.166379       331.0640 
 761   0.0000      12.191662       331.7520 
 762   0.0000      12.243361       333.1588 
 763   0.0000      12.338523       335.7483 
 764   0.0000      12.540284       341.2385 
 765   0.0000      12.573687       342.1474 
 766   0.0000      12.603662       342.9631 
 767   0.0000      12.608610       343.0977 
 768   0.0000      12.695528       345.4629 
 769   0.0000      12.700806       345.6065 
 770   0.0000      12.726251       346.2989 
 771   0.0000      12.743271       346.7620 
 772   0.0000      12.751192       346.9776 
 773   0.0000      12.892083       350.8114 
 774   0.0000      13.116438       356.9164 
 775   0.0000      13.146773       357.7419 
 776   0.0000      13.156446       358.0051 
 777   0.0000      13.178236       358.5980 
 778   0.0000      13.770205       374.7063 
 779   0.0000      13.783585       375.0704 
 780   0.0000      13.813206       375.8765 
 781   0.0000      13.958829       379.8390 
 782   0.0000      14.019468       381.4891 
 783   0.0000      14.036553       381.9540 
 784   0.0000      14.380607       391.3162 
 785   0.0000      14.425230       392.5305 
 786   0.0000      14.522063       395.1654 
 787   0.0000      16.585069       451.3027 
 788   0.0000      16.637207       452.7214 
 789   0.0000      16.648883       453.0391 
 790   0.0000      27.927118       759.9355 
 791   0.0000      28.427646       773.5556 
 792   0.0000      28.502302       775.5871 
 793   0.0000      28.588639       777.9364 
 794   0.0000      28.873912       785.6991 
 795   0.0000      28.974387       788.4332 
 796   0.0000      29.293443       797.1151 
 797   0.0000      48.331030      1315.1542 
 798   0.0000      48.437108      1318.0407 
 799   0.0000      48.521191      1320.3287 
 800   0.0000     147.006074      4000.2386 
 801   0.0000     147.492929      4013.4866 
 802   0.0000     147.547435      4014.9698 
 803   0.0000     147.644490      4017.6108 
 804   0.0000     147.880249      4024.0261 
 805   0.0000     147.977788      4026.6803 
 806   0.0000     148.323811      4036.0961 
 807   0.0000     253.360321      6894.2848 
 808   0.0000     253.487794      6897.7536 
 809   0.0000     253.591212      6900.5677 

                    ********************************
                    * MULLIKEN POPULATION ANALYSIS *
                    ********************************

------------------------------------------
FOD BASED MULLIKEN REDUCED ORBITAL CHARGES
------------------------------------------
  0 C s       :     0.000070  s :     0.000070
      pz      :     0.000477  p :     0.000676
      px      :     0.000229
      py      :    -0.000031
      dz2     :     0.000031  d :     0.000054
      dxz     :     0.000002
      dyz     :     0.000006
      dx2y2   :     0.000011
      dxy     :     0.000003
      f0      :     0.000000  f :     0.000004
      f+1     :     0.000001
      f-1     :     0.000001
      f+2     :    -0.000000
      f-2     :     0.000000
      f+3     :     0.000000
      f-3     :     0.000001
      g0      :     0.000000  g :     0.000000
      g+1     :     0.000000
      g-1     :     0.000000
      g+2     :     0.000000
      g-2     :     0.000000
      g+3     :     0.000000
      g-3     :     0.000000
      g+4     :     0.000000
      g-4     :     0.000000
  1 C s       :    -0.000023  s :    -0.000023
      pz      :     0.000473  p :     0.000705
      px      :     0.000213
      py      :     0.000020
      dz2     :     0.000009  d :     0.000048
      dxz     :     0.000002
      dyz     :     0.000020
      dx2y2   :     0.000008
      dxy     :     0.000010
      f0      :     0.000000  f :     0.000004
      f+1     :     0.000001
      f-1     :     0.000001
      f+2     :     0.000001
      f-2     :     0.000000
      f+3     :     0.000001
      f-3     :     0.000000
      g0      :     0.000000  g :     0.000000
      g+1     :     0.000000
      g-1     :     0.000000
      g+2     :     0.000000
      g-2     :     0.000000
      g+3     :     0.000000
      g-3     :     0.000000
      g+4     :     0.000000
      g-4     :     0.000000
  2 C s       :    -0.000007  s :    -0.000007
      pz      :     0.000369  p :     0.000542
      px      :     0.000164
      py      :     0.000010
      dz2     :     0.000016  d :     0.000061
      dxz     :     0.000002
      dyz     :     0.000024
      dx2y2   :     0.000002
      dxy     :     0.000017
      f0      :     0.000001  f :     0.000004
      f+1     :     0.000001
      f-1     :     0.000000
      f+2     :     0.000001
      f-2     :     0.000000
      f+3     :     0.000001
      f-3     :     0.000001
      g0      :     0.000000  g :     0.000000
      g+1     :     0.000000
      g-1     :     0.000000
      g+2     :     0.000000
      g-2     :     0.000000
      g+3     :     0.000000
      g-3     :     0.000000
      g+4     :     0.000000
      g-4     :     0.000000
  3 C s       :    -0.000038  s :    -0.000038
      pz      :     0.000493  p :     0.000716
      px      :     0.000226
      py      :    -0.000003
      dz2     :     0.000026  d :     0.000051
      dxz     :     0.000007
      dyz     :     0.000005
      dx2y2   :     0.000011
      dxy     :     0.000003
      f0      :     0.000000  f :     0.000004
      f+1     :     0.000001
      f-1     :     0.000001
      f+2     :     0.000000
      f-2     :     0.000000
      f+3     :     0.000000
      f-3     :     0.000001
      g0      :     0.000000  g :     0.000000
      g+1     :     0.000000
      g-1     :     0.000000
      g+2     :     0.000000
      g-2     :     0.000000
      g+3     :     0.000000
      g-3     :     0.000000
      g+4     :     0.000000
      g-4     :     0.000000
  4 C s       :     0.000001  s :     0.000001
      pz      :     0.000432  p :     0.000630
      px      :     0.000189
      py      :     0.000008
      dz2     :     0.000009  d :     0.000054
      dxz     :     0.000005
      dyz     :     0.000025
      dx2y2   :     0.000008
      dxy     :     0.000008
      f0      :     0.000000  f :     0.000004
      f+1     :     0.000001
      f-1     :     0.000001
      f+2     :     0.000001
      f-2     :     0.000000
      f+3     :     0.000001
      f-3     :     0.000000
      g0      :     0.000000  g :     0.000000
      g+1     :     0.000000
      g-1     :     0.000000
      g+2     :     0.000000
      g-2     :     0.000000
      g+3     :     0.000000
      g-3     :     0.000000
      g+4     :     0.000000
      g-4     :     0.000000
  5 C s       :    -0.000073  s :    -0.000073
      pz      :     0.000411  p :     0.000601
      px      :     0.000165
      py      :     0.000024
      dz2     :     0.000015  d :     0.000059
      dxz     :     0.000001
      dyz     :     0.000026
      dx2y2   :     0.000001
      dxy     :     0.000016
      f0      :     0.000001  f :     0.000004
      f+1     :     0.000001
      f-1     :     0.000000
      f+2     :     0.000001
      f-2     :     0.000000
      f+3     :     0.000001
      f-3     :     0.000001
      g0      :     0.000000  g :     0.000000
      g+1     :     0.000000
      g-1     :     0.000000
      g+2     :     0.000000
      g-2     :     0.000000
      g+3     :     0.000000
      g-3     :     0.000000
      g+4     :     0.000000
      g-4     :     0.000000
  6 C s       :    -0.000041  s :    -0.000041
      pz      :     0.000005  p :     0.000001
      px      :    -0.000004
      py      :    -0.000001
      dz2     :     0.000001  d :     0.000015
      dxz     :     0.000000
      dyz     :     0.000009
      dx2y2   :     0.000001
      dxy     :     0.000004
      f0      :     0.000001  f :     0.000008
      f+1     :     0.000001
      f-1     :     0.000001
      f+2     :     0.000002
      f-2     :     0.000000
      f+3     :     0.000002
      f-3     :     0.000000
      g0      :     0.000000  g :     0.000000
      g+1     :    -0.000000
      g-1     :     0.000000
      g+2     :     0.000000
      g-2     :     0.000000
      g+3     :     0.000000
      g-3     :     0.000000
      g+4     :     0.000000
      g-4     :     0.000000
  7 H s       :     0.000003  s :     0.000003
      pz      :     0.000014  p :     0.000022
      px      :     0.000006
      py      :     0.000001
      dz2     :     0.000001  d :     0.000002
      dxz     :     0.000000
      dyz     :     0.000000
      dx2y2   :     0.000000
      dxy     :     0.000000
      f0      :     0.000000  f :     0.000000
      f+1     :     0.000000
      f-1     :     0.000000
      f+2     :     0.000000
      f-2     :     0.000000
[...]
      dxz     :     0.000000
      dyz     :     0.000000
      dx2y2   :     0.000000
      dxy     :     0.000000
      f0      :     0.000000  f :     0.000000
      f+1     :     0.000000
      f-1     :     0.000000
      f+2     :     0.000000
      f-2     :     0.000000
      f+3     :     0.000000
      f-3     :     0.000000


                     *******************************
                     * LOEWDIN POPULATION ANALYSIS *
                     *******************************

----------------------
LOEWDIN ATOMIC CHARGES
----------------------
   0 C :   -0.108820
   1 C :    0.082714
   2 C :    0.062896
   3 C :    0.062226
   4 C :    0.062054
   5 C :    0.076848
   6 C :   -0.923846
   7 H :   -0.043719
   8 H :   -0.055764
   9 H :   -0.056275
  10 H :   -0.056242
  11 H :   -0.053635
  12 O :    0.663050
  13 H :   -0.339643
  14 O :    0.647018
  15 H :   -0.341915
  16 O :    0.661914
  17 H :   -0.338860

-------------------------------
LOEWDIN REDUCED ORBITAL CHARGES
-------------------------------
  0 C s       :     2.585397  s :     2.585397
      pz      :     0.858455  p :     2.736866
      px      :     0.945068
      py      :     0.933343
      dz2     :     0.097695  d :     0.621961
      dxz     :     0.093634
      dyz     :     0.102001
      dx2y2   :     0.182715
      dxy     :     0.145917
      f0      :     0.010760  f :     0.150573
      f+1     :     0.013043
      f-1     :     0.018543
      f+2     :     0.029315
      f-2     :     0.015586
      f+3     :     0.042242
      f-3     :     0.021085
      g0      :     0.001462  g :     0.014022
      g+1     :     0.000777
      g-1     :     0.001122
      g+2     :     0.000749
      g-2     :     0.001551
      g+3     :     0.002418
      g-3     :     0.002009
      g+4     :     0.002061
      g-4     :     0.001872
  1 C s       :     2.587475  s :     2.587475
      pz      :     0.822056  p :     2.704582
      px      :     0.897096
      py      :     0.985429
      dz2     :     0.047451  d :     0.500546
      dxz     :     0.062419
      dyz     :     0.111611
      dx2y2   :     0.123750
      dxy     :     0.155314
      f0      :     0.010448  f :     0.113278
      f+1     :     0.009824
      f-1     :     0.010861
      f+2     :     0.021301
      f-2     :     0.010069
      f+3     :     0.035979
      f-3     :     0.014795
      g0      :     0.001028  g :     0.011406
      g+1     :     0.000556
      g-1     :     0.001318
      g+2     :     0.000743
      g-2     :     0.001044
      g+3     :     0.001194
      g-3     :     0.001664
      g+4     :     0.001730
      g-4     :     0.002129
  2 C s       :     2.595275  s :     2.595275
      pz      :     0.835003  p :     2.720315
      px      :     0.899195
      py      :     0.986117
      dz2     :     0.053709  d :     0.499913
      dxz     :     0.057859
      dyz     :     0.113484
      dx2y2   :     0.125042
      dxy     :     0.149819
      f0      :     0.011467  f :     0.110361
      f+1     :     0.008931
      f-1     :     0.009829
      f+2     :     0.022862
      f-2     :     0.009419
      f+3     :     0.032167
      f-3     :     0.015686
      g0      :     0.000866  g :     0.011241
      g+1     :     0.000707
      g-1     :     0.001396
      g+2     :     0.000664
      g-2     :     0.000986
      g+3     :     0.001293
      g-3     :     0.001822
      g+4     :     0.001370
      g-4     :     0.002137
  3 C s       :     2.596067  s :     2.596067
      pz      :     0.842850  p :     2.718879
      px      :     0.929807
      py      :     0.946222
      dz2     :     0.084713  d :     0.501263
      dxz     :     0.091742
      dyz     :     0.059131
      dx2y2   :     0.161485
      dxy     :     0.104192
      f0      :     0.006219  f :     0.110376
      f+1     :     0.012597
      f-1     :     0.013829
      f+2     :     0.020143
      f-2     :     0.014505
      f+3     :     0.027509
      f-3     :     0.015573
      g0      :     0.001251  g :     0.011189
      g+1     :     0.000780
      g-1     :     0.000677
      g+2     :     0.000512
      g-2     :     0.001453
      g+3     :     0.002371
      g-3     :     0.001575
      g+4     :     0.001532
      g-4     :     0.001039
  4 C s       :     2.595364  s :     2.595364
      pz      :     0.831410  p :     2.721110
      px      :     0.906811
      py      :     0.982889
      dz2     :     0.046162  d :     0.500134
      dxz     :     0.063465
      dyz     :     0.109497
      dx2y2   :     0.125452
      dxy     :     0.155558
      f0      :     0.010192  f :     0.110127
      f+1     :     0.009514
      f-1     :     0.010286
      f+2     :     0.021326
      f-2     :     0.009278
      f+3     :     0.035309
      f-3     :     0.014223
      g0      :     0.001013  g :     0.011210
      g+1     :     0.000549
      g-1     :     0.001281
      g+2     :     0.000734
      g-2     :     0.000989
      g+3     :     0.001187
      g-3     :     0.001691
      g+4     :     0.001671
      g-4     :     0.002096
  5 C s       :     2.588898  s :     2.588898
      pz      :     0.826143  p :     2.708384
      px      :     0.895681
      py      :     0.986559
      dz2     :     0.055462  d :     0.501359
      dxz     :     0.057288
      dyz     :     0.113505
      dx2y2   :     0.124233
      dxy     :     0.150871
      f0      :     0.011698  f :     0.113110
      f+1     :     0.009104
      f-1     :     0.010407
      f+2     :     0.022543
      f-2     :     0.010172
      f+3     :     0.033020
      f-3     :     0.016167
      g0      :     0.000884  g :     0.011401
      g+1     :     0.000740
      g-1     :     0.001419
      g+2     :     0.000658
      g-2     :     0.001034
      g+3     :     0.001330
      g-3     :     0.001783
      g+4     :     0.001419
      g-4     :     0.002134
  6 C s       :     2.574827  s :     2.574827
      pz      :     0.801099  p :     2.561972
      px      :     0.817294
      py      :     0.943579
      dz2     :     0.274228  d :     1.270677
      dxz     :     0.271970
      dyz     :     0.217883
      dx2y2   :     0.295378
      dxy     :     0.211217
      f0      :     0.056463  f :     0.472099
      f+1     :     0.111419
      f-1     :     0.058922
      f+2     :     0.066850
      f-2     :     0.054979
      f+3     :     0.080636
      f-3     :     0.042830
      g0      :     0.005966  g :     0.044270
      g+1     :     0.005380
      g-1     :     0.004425
      g+2     :     0.003969
      g-2     :     0.006214
      g+3     :     0.005797
      g-3     :     0.003879
      g+4     :     0.004515
      g-4     :     0.004125
  7 H s       :     0.784500  s :     0.784500
      pz      :     0.061878  p :     0.186379
      px      :     0.066746
      py      :     0.057756
      dz2     :     0.012000  d :     0.063616
      dxz     :     0.012328
      dyz     :     0.009993
      dx2y2   :     0.016866
      dxy     :     0.012429
      f0      :     0.000581  f :     0.009223
      f+1     :     0.001459
      f-1     :     0.000912
      f+2     :     0.001771
      f-2     :     0.001602
      f+3     :     0.001672
      f-3     :     0.001226
  8 H s       :     0.797756  s :     0.797756
      pz      :     0.059379  p :     0.186328
      px      :     0.073594
      py      :     0.053354
      dz2     :     0.010581  d :     0.062551
      dxz     :     0.013202
      dyz     :     0.007877
      dx2y2   :     0.016983
      dxy     :     0.013908
      f0      :     0.000527  f :     0.009129
      f+1     :     0.001601
      f-1     :     0.000654
      f+2     :     0.001442
      f-2     :     0.001535
      f+3     :     0.002044
      f-3     :     0.001328
  9 H s       :     0.798501  s :     0.798501
      pz      :     0.049518  p :     0.186228
      px      :     0.045787
      py      :     0.090923
      dz2     :     0.004990  d :     0.062426
      dxz     :     0.000533
      dyz     :     0.020553
      dx2y2   :     0.014246
      dxy     :     0.022104
      f0      :     0.001078  f :     0.009120
      f+1     :     0.000199
      f-1     :     0.001088
      f+2     :     0.001765
      f-2     :     0.000132
      f+3     :     0.002975
      f-3     :     0.001882
 10 H s       :     0.798004  s :     0.798004
      pz      :     0.062979  p :     0.186519
      px      :     0.068311
      py      :     0.055229
      dz2     :     0.012108  d :     0.062588
      dxz     :     0.012190
      dyz     :     0.009538
      dx2y2   :     0.016548
      dxy     :     0.012204
      f0      :     0.000564  f :     0.009131
      f+1     :     0.001497
      f-1     :     0.000862
      f+2     :     0.001740
      f-2     :     0.001588
      f+3     :     0.001676
      f-3     :     0.001205
 11 H s       :     0.786238  s :     0.786238
      pz      :     0.058345  p :     0.193507
      px      :     0.073845
      py      :     0.061317
      dz2     :     0.010523  d :     0.064616
      dxz     :     0.013490
      dyz     :     0.008237
      dx2y2   :     0.018427
      dxy     :     0.013940
      f0      :     0.000544  f :     0.009273
      f+1     :     0.001581
      f-1     :     0.000672
      f+2     :     0.001454
      f-2     :     0.001556
      f+3     :     0.002099
      f-3     :     0.001367
 12 O s       :     3.047548  s :     3.047548
      pz      :     1.273065  p :     4.152772
      px      :     1.403995
      py      :     1.475712
      dz2     :     0.033776  d :     0.116141
      dxz     :     0.024070
      dyz     :     0.017481
      dx2y2   :     0.021884
      dxy     :     0.018932
      f0      :     0.002502  f :     0.019774
      f+1     :     0.003425
      f-1     :     0.003039
      f+2     :     0.002041
      f-2     :     0.003179
      f+3     :     0.003312
      f-3     :     0.002277
      g0      :     0.000109  g :     0.000715
      g+1     :     0.000074
      g-1     :     0.000055
      g+2     :     0.000074
      g-2     :     0.000078
      g+3     :     0.000104
      g-3     :     0.000062
      g+4     :     0.000088
      g-4     :     0.000072
 13 H s       :     0.677292  s :     0.677292
      pz      :     0.186979  p :     0.428491
      px      :     0.105367
      py      :     0.136145
      dz2     :     0.058415  d :     0.193887
      dxz     :     0.057476
      dyz     :     0.059159
      dx2y2   :     0.010714
      dxy     :     0.008123
      f0      :     0.012290  f :     0.039973
      f+1     :     0.010533
      f-1     :     0.008383
      f+2     :     0.004170
      f-2     :     0.004078
      f+3     :     0.000272
      f-3     :     0.000247
 14 O s       :     3.047300  s :     3.047300
      pz      :     1.503969  p :     4.169418
      px      :     1.387114
      py      :     1.278336
      dz2     :     0.017834  d :     0.115693
      dxz     :     0.020693
      dyz     :     0.007136
      dx2y2   :     0.044190
      dxy     :     0.025839
      f0      :     0.001102  f :     0.019877
      f+1     :     0.003114
      f-1     :     0.001166
      f+2     :     0.003310
      f-2     :     0.001841
      f+3     :     0.005170
      f-3     :     0.004176
      g0      :     0.000065  g :     0.000695
      g+1     :     0.000056
      g-1     :     0.000091
      g+2     :     0.000083
      g-2     :     0.000036
      g+3     :     0.000103
      g-3     :     0.000098
      g+4     :     0.000113
      g-4     :     0.000049
 15 H s       :     0.682444  s :     0.682444
      pz      :     0.119442  p :     0.425809
      px      :     0.099713
      py      :     0.206654
      dz2     :     0.015800  d :     0.193920
      dxz     :     0.000592
      dyz     :     0.069086
      dx2y2   :     0.043718
      dxy     :     0.064724
      f0      :     0.006024  f :     0.039742
      f+1     :     0.000876
      f-1     :     0.003597
      f+2     :     0.010132
      f-2     :     0.000052
      f+3     :     0.013384
      f-3     :     0.005677
 16 O s       :     3.046533  s :     3.046533
      pz      :     1.229639  p :     4.154780
      px      :     1.439734
      py      :     1.485408
      dz2     :     0.036711  d :     0.116251
      dxz     :     0.034309
      dyz     :     0.029067
      dx2y2   :     0.008859
      dxy     :     0.007304
      f0      :     0.004973  f :     0.019805
      f+1     :     0.004490
      f-1     :     0.004633
      f+2     :     0.002011
      f-2     :     0.002299
      f+3     :     0.000437
      f-3     :     0.000962
      g0      :     0.000128  g :     0.000717
      g+1     :     0.000115
      g-1     :     0.000078
      g+2     :     0.000103
      g-2     :     0.000102
      g+3     :     0.000077
      g-3     :     0.000049
      g+4     :     0.000035
      g-4     :     0.000031
 17 H s       :     0.677268  s :     0.677268
      pz      :     0.104620  p :     0.427731
      px      :     0.179090
      py      :     0.144021
      dz2     :     0.041626  d :     0.193894
      dxz     :     0.035448
      dyz     :     0.026019
      dx2y2   :     0.050267
      dxy     :     0.040535
      f0      :     0.002634  f :     0.039967
      f+1     :     0.008597
      f-1     :     0.002974
      f+2     :     0.007822
      f-2     :     0.005937
      f+3     :     0.008129
      f-3     :     0.003874


                      *****************************
                      * MAYER POPULATION ANALYSIS *
                      *****************************

  NA   - Mulliken gross atomic population
  ZA   - Total nuclear charge
  QA   - Mulliken gross atomic charge
  VA   - Mayer's total valence
  BVA  - Mayer's bonded valence
  FA   - Mayer's free valence

  ATOM       NA         ZA         QA         VA         BVA        FA
  0 C      5.9304     6.0000     0.0696     3.5053     3.5036     0.0016
  1 C      6.1283     6.0000    -0.1283     3.7053     3.7038     0.0015
  2 C      6.0894     6.0000    -0.0894     3.8010     3.7998     0.0012
  3 C      6.0610     6.0000    -0.0610     3.7904     3.7889     0.0015
  4 C      6.0872     6.0000    -0.0872     3.8038     3.8024     0.0014
  5 C      6.1181     6.0000    -0.1181     3.6610     3.6598     0.0012
  6 C      5.4130     6.0000     0.5870     4.0447     4.0447    -0.0000
  7 H      0.8924     1.0000     0.1076     0.9962     0.9961     0.0001
  8 H      0.9361     1.0000     0.0639     1.0004     1.0003     0.0001
  9 H      0.9411     1.0000     0.0589     0.9993     0.9991     0.0001
 10 H      0.9372     1.0000     0.0628     1.0011     1.0010     0.0001
 11 H      0.9225     1.0000     0.0775     1.0303     1.0303     0.0000
 12 O      8.3884     8.0000    -0.3884     2.0658     2.0655     0.0003
 13 H      0.7779     1.0000     0.2221     1.0301     1.0299     0.0002
 14 O      8.4304     8.0000    -0.4304     2.0627     2.0625     0.0002
 15 H      0.7801     1.0000     0.2199     1.0384     1.0382     0.0002
 16 O      8.3958     8.0000    -0.3958     2.0579     2.0577     0.0002
 17 H      0.7706     1.0000     0.2294     1.0220     1.0218     0.0002

  Mayer bond orders larger than 0.100000
B(  0-C ,  1-C ) :   1.2557 B(  0-C ,  5-C ) :   1.2537 B(  0-C ,  6-C ) :   0.8493 
B(  1-C ,  2-C ) :   1.3303 B(  1-C ,  7-H ) :   0.9607 B(  2-C ,  3-C ) :   1.3170 
B(  2-C ,  8-H ) :   0.9699 B(  3-C ,  4-C ) :   1.3322 B(  3-C ,  9-H ) :   0.9673 
B(  4-C ,  5-C ) :   1.3222 B(  4-C , 10-H ) :   0.9708 B(  5-C , 11-H ) :   0.9569 
B(  6-C , 12-O ) :   1.0329 B(  6-C , 14-O ) :   1.0848 B(  6-C , 16-O ) :   1.0276 
B( 12-O , 13-H ) :   0.9767 B( 14-O , 15-H ) :   0.9649 B( 16-O , 17-H ) :   0.9704 


-------
TIMINGS
-------

Total SCF time: 0 days 0 hours 43 min 40 sec 

Total time                  ....    2620.691 sec
Sum of individual times     ....    2616.172 sec  ( 99.8%)

Fock matrix formation       ....    2583.255 sec  ( 98.6%)
  Split-RI-J                ....     152.053 sec  (  5.9% of F)
  Chain of spheres X        ....    2206.662 sec  ( 85.4% of F)
  XC integration            ....     223.193 sec  (  8.6% of F)
    Basis function eval.    ....      43.272 sec  ( 19.4% of XC)
    Density eval.           ....      90.855 sec  ( 40.7% of XC)
    XC-Functional eval.     ....       2.279 sec  (  1.0% of XC)
    XC-Potential eval.      ....      81.194 sec  ( 36.4% of XC)
Diagonalization             ....       7.035 sec  (  0.3%)
Density matrix formation    ....       6.131 sec  (  0.2%)
Population analysis         ....       0.475 sec  (  0.0%)
Initial guess               ....       5.351 sec  (  0.2%)
Orbital Transformation      ....       0.000 sec  (  0.0%)
Orbital Orthonormalization  ....       0.000 sec  (  0.0%)
DIIS solution               ....       3.857 sec  (  0.1%)
Grid generation             ....      10.068 sec  (  0.4%)

Maximum memory used throughout the entire SCF-calculation: 978.4 MB

-------------------------   --------------------
FINAL SINGLE POINT ENERGY      -497.200255454966
-------------------------   --------------------


                            ***************************************
                            *     ORCA property calculations      *
                            ***************************************

                                    ---------------------
                                    Active property flags
                                    ---------------------
   (+) Dipole Moment


------------------------------------------------------------------------------
                       ORCA ELECTRIC PROPERTIES CALCULATION
------------------------------------------------------------------------------

Dipole Moment Calculation                       ... on
Quadrupole Moment Calculation                   ... off
Polarizability Calculation                      ... off
GBWName                                         ... anilin_fod.gbw
Electron density                                ... anilin_fod.scfp
The origin for moment calculation is the CENTER OF MASS  = (-7.368422,  1.933434 -0.160237)

-------------
DIPOLE MOMENT
-------------
                                X             Y             Z
Electronic contribution:      0.02443       3.03220      -0.33489
Nuclear contribution   :      0.31644      -3.51876       0.56972
                        -----------------------------------------
Total Dipole Moment    :      0.34087      -0.48656       0.23483
                        -----------------------------------------
Magnitude (a.u.)       :      0.63881
Magnitude (Debye)      :      1.62374



--------------------
Rotational spectrum 
--------------------
 
Rotational constants in cm-1:     0.093520     0.032173     0.027486 
Rotational constants in MHz :  2803.659723   964.517439   824.009769 

 Dipole components along the rotational axes: 
x,y,z [a.u.] :    -0.484598    -0.414040    -0.042665 
x,y,z [Debye]:    -1.231749    -1.052406    -0.108445 

 

Timings for individual modules:

Sum of individual times         ...     2632.372 sec (=  43.873 min)
GTO integral calculation        ...        9.134 sec (=   0.152 min)   0.3 %
SCF iterations                  ...     2623.238 sec (=  43.721 min)  99.7 %
                             ****ORCA TERMINATED NORMALLY****
TOTAL RUN TIME: 0 days 0 hours 43 minutes 55 seconds 847 msec
