
                                 *****************
                                 * O   R   C   A *
                                 *****************

                                            #,                                       
                                            ###                                      
                                            ####                                     
                                            #####                                    
                                            ######                                   
                                           ########,                                 
                                     ,,################,,,,,                         
                               ,,#################################,,                 
                          ,,##########################################,,             
                       ,#########################################, ''#####,          
                    ,#############################################,,   '####,        
                  ,##################################################,,,,####,       
                ,###########''''           ''''###############################       
              ,#####''   ,,,,##########,,,,          '''####'''          '####       
            ,##' ,,,,###########################,,,                        '##       
           ' ,,###''''                  '''############,,,                           
         ,,##''                                '''############,,,,        ,,,,,,###''
      ,#''                                            '''#######################'''  
     '                                                          ''''####''''         
             ,#######,   #######,   ,#######,      ##                                
            ,#'     '#,  ##    ##  ,#'     '#,    #''#        ######   ,####,        
            ##       ##  ##   ,#'  ##            #'  '#       #        #'  '#        
            ##       ##  #######   ##           ,######,      #####,   #    #        
            '#,     ,#'  ##    ##  '#,     ,#' ,#      #,         ##   #,  ,#        
             '#######'   ##     ##  '#######'  #'      '#     #####' # '####'        



                  #######################################################
                  #                        -***-                        #
                  #          Department of theory and spectroscopy      #
                  #    Directorship and core code : Frank Neese         #
                  #        Max Planck Institute fuer Kohlenforschung    #
                  #                Kaiser Wilhelm Platz 1               #
                  #                 D-45470 Muelheim/Ruhr               #
                  #                      Germany                        #
                  #                                                     #
                  #                  All rights reserved                #
                  #                        -***-                        #
                  #######################################################



                         Program Version 5.0.4 -  RELEASE  -

 With contributions from (in alphabetic order):
   Daniel Aravena         : Magnetic Suceptibility
   Michael Atanasov       : Ab Initio Ligand Field Theory (pilot matlab implementation)
   Alexander A. Auer      : GIAO ZORA, VPT2 properties, NMR spectrum
   Ute Becker             : Parallelization
   Giovanni Bistoni       : ED, misc. LED, open-shell LED, HFLD
   Martin Brehm           : Molecular dynamics
   Dmytro Bykov           : SCF Hessian
   Vijay G. Chilkuri      : MRCI spin determinant printing, contributions to CSF-ICE
   Dipayan Datta          : RHF DLPNO-CCSD density
   Achintya Kumar Dutta   : EOM-CC, STEOM-CC
   Dmitry Ganyushin       : Spin-Orbit,Spin-Spin,Magnetic field MRCI
   Miquel Garcia          : C-PCM and meta-GGA Hessian, CC/C-PCM, Gaussian charge scheme
   Yang Guo               : DLPNO-NEVPT2, F12-NEVPT2, CIM, IAO-localization
   Andreas Hansen         : Spin unrestricted coupled pair/coupled cluster methods
   Benjamin Helmich-Paris : MC-RPA, TRAH-SCF, COSX integrals
   Lee Huntington         : MR-EOM, pCC
   Robert Izsak           : Overlap fitted RIJCOSX, COSX-SCS-MP3, EOM
   Marcus Kettner         : VPT2
   Christian Kollmar      : KDIIS, OOCD, Brueckner-CCSD(T), CCSD density, CASPT2, CASPT2-K
   Simone Kossmann        : Meta GGA functionals, TD-DFT gradient, OOMP2, MP2 Hessian
   Martin Krupicka        : Initial AUTO-CI
   Lucas Lang             : DCDCAS
   Marvin Lechner         : AUTO-CI (C++ implementation), FIC-MRCC
   Dagmar Lenk            : GEPOL surface, SMD
   Dimitrios Liakos       : Extrapolation schemes; Compound Job, initial MDCI parallelization
   Dimitrios Manganas     : Further ROCIS development; embedding schemes
   Dimitrios Pantazis     : SARC Basis sets
   Anastasios Papadopoulos: AUTO-CI, single reference methods and gradients
   Taras Petrenko         : DFT Hessian,TD-DFT gradient, ASA, ECA, R-Raman, ABS, FL, XAS/XES, NRVS
   Peter Pinski           : DLPNO-MP2, DLPNO-MP2 Gradient
   Christoph Reimann      : Effective Core Potentials
   Marius Retegan         : Local ZFS, SOC
   Christoph Riplinger    : Optimizer, TS searches, QM/MM, DLPNO-CCSD(T), (RO)-DLPNO pert. Triples
   Tobias Risthaus        : Range-separated hybrids, TD-DFT gradient, RPA, STAB
   Michael Roemelt        : Original ROCIS implementation
   Masaaki Saitow         : Open-shell DLPNO-CCSD energy and density
   Barbara Sandhoefer     : DKH picture change effects
   Avijit Sen             : IP-ROCIS
   Kantharuban Sivalingam : CASSCF convergence, NEVPT2, FIC-MRCI
   Bernardo de Souza      : ESD, SOC TD-DFT
   Georgi Stoychev        : AutoAux, RI-MP2 NMR, DLPNO-MP2 response
   Willem Van den Heuvel  : Paramagnetic NMR
   Boris Wezisla          : Elementary symmetry handling
   Frank Wennmohs         : Technical directorship


 We gratefully acknowledge several colleagues who have allowed us to
 interface, adapt or use parts of their codes:
   Stefan Grimme, W. Hujo, H. Kruse, P. Pracht,  : VdW corrections, initial TS optimization,
                  C. Bannwarth, S. Ehlert          DFT functionals, gCP, sTDA/sTD-DF
   Ed Valeev, F. Pavosevic, A. Kumar             : LibInt (2-el integral package), F12 methods
   Garnet Chan, S. Sharma, J. Yang, R. Olivares  : DMRG
   Ulf Ekstrom                                   : XCFun DFT Library
   Mihaly Kallay                                 : mrcc  (arbitrary order and MRCC methods)
   Jiri Pittner, Ondrej Demel                    : Mk-CCSD
   Frank Weinhold                                : gennbo (NPA and NBO analysis)
   Christopher J. Cramer and Donald G. Truhlar   : smd solvation model
   Lars Goerigk                                  : TD-DFT with DH, B97 family of functionals
   V. Asgeirsson, H. Jonsson                     : NEB implementation
   FAccTs GmbH                                   : IRC, NEB, NEB-TS, DLPNO-Multilevel, CI-OPT
                                                   MM, QMMM, 2- and 3-layer-ONIOM, Crystal-QMMM,
                                                   LR-CPCM, SF, NACMEs, symmetry and pop. for TD-DFT,
                                                   nearIR, NL-DFT gradient (VV10), updates on ESD,
                                                   ML-optimized integration grids
   S Lehtola, MJT Oliveira, MAL Marques          : LibXC Library
   Liviu Ungur et al                             : ANISO software


 Your calculation uses the libint2 library for the computation of 2-el integrals
 For citations please refer to: http://libint.valeyev.net

 Your ORCA version has been built with support for libXC version: 5.1.0
 For citations please refer to: https://tddft.org/programs/libxc/

 This ORCA versions uses:
   CBLAS   interface :  Fast vector & matrix operations
   LAPACKE interface :  Fast linear algebra routines
   Shared memory     :  Shared parallel matrices


Your calculation utilizes the atom-pairwise dispersion correction
based on tight binding partial charges (D4)
Cite in your paper:
E.Caldeweyher, C.Bannwarth, S.Grimme, J.Chem.Phys., (2017), 147, 034112.
E.Caldeweyher, S.Ehlert, A.Hansen, H.Neugebauer, S.Grimme, J.Chem.Phys., (2018), in progress.
   

================================================================================

----- Orbital basis set information -----
Your calculation utilizes the basis: def2-SVP
   F. Weigend and R. Ahlrichs, Phys. Chem. Chem. Phys. 7, 3297 (2005).

----- AuxJ basis set information -----
Your calculation utilizes the auxiliary basis: def2/J
   F. Weigend, Phys. Chem. Chem. Phys. 8, 1057 (2006).

================================================================================
                                        WARNINGS
                       Please study these warnings very carefully!
================================================================================


WARNING: Geometry Optimization
  ===> : Switching off AutoStart
         For restart on a previous wavefunction, please use MOREAD

INFO   : the flag for use of the SHARK integral package has been found!

================================================================================
                                       INPUT FILE
================================================================================
NAME = opt2.inp
|  1> !B3LYP DEF2-SVP OPT FREQ D4 SOSCF
|  2> 
|  3> * xyz 1 1
|  4>    C       -3.72465        0.78901        0.04183
|  5>    C       -4.68012       -0.25011        0.26418
|  6>    C       -4.29013       -1.57484        0.17564
|  7>    C       -2.95495       -1.91003       -0.13358
|  8>    C       -2.00606       -0.89203       -0.35528
|  9>    C       -2.37347        0.43978       -0.27168
| 10>    H       -5.71442        0.01410        0.50355
| 11>    H       -5.02287       -2.36664        0.34698
| 12>    H       -2.65602       -2.95936       -0.20143
| 13>    H       -0.97273       -1.15657       -0.59544
| 14>    H       -1.64121        1.23288       -0.44412
| 15>    N       -4.09362        2.08407        0.12686
| 16>    H       -5.04890        2.34803        0.34860
| 17>    H       -3.42626        2.83228       -0.02771
| 18>    N        6.99949        3.51936       -1.36174
| 19>    O        7.19775        4.73474       -1.82264
| 20>    O        6.26241        2.87504       -0.45200
| 21> **                         ****END OF INPUT****
================================================================================

                       *****************************
                       * Geometry Optimization Run *
                       *****************************

Geometry optimization settings:
Update method            Update   .... BFGS
Choice of coordinates    CoordSys .... Z-matrix Internals
Initial Hessian          InHess   .... Almoef's Model

Convergence Tolerances:
Energy Change            TolE     ....  5.0000e-06 Eh
Max. Gradient            TolMAXG  ....  3.0000e-04 Eh/bohr
RMS Gradient             TolRMSG  ....  1.0000e-04 Eh/bohr
Max. Displacement        TolMAXD  ....  4.0000e-03 bohr
RMS Displacement         TolRMSD  ....  2.0000e-03 bohr
Strict Convergence                ....  False
------------------------------------------------------------------------------
                        ORCA OPTIMIZATION COORDINATE SETUP
------------------------------------------------------------------------------

The optimization will be done in new redundant internal coordinates
Making redundant internal coordinates   ...  (new redundants) done
Evaluating the initial hessian          ...  (Almloef) done
Evaluating the coordinates              ...  done
Calculating the B-matrix                .... done
Calculating the G-matrix                .... done
Diagonalizing the G-matrix              .... done
The first mode is                       ....   55
The number of degrees of freedom        ....   45

    -----------------------------------------------------------------
                    Redundant Internal Coordinates


    -----------------------------------------------------------------
         Definition                    Initial Value    Approx d2E/dq
    -----------------------------------------------------------------
      1. B(C   1,C   0)                  1.4290         0.541334   
      2. B(C   2,C   1)                  1.3838         0.639242   
      3. B(C   3,C   2)                  1.4109         0.578593   
      4. B(C   4,C   3)                  1.4092         0.582228   
      5. B(C   5,C   4)                  1.3841         0.638517   
      6. B(C   5,C   0)                  1.4304         0.538694   
      7. B(H   6,C   1)                  1.0940         0.354820   
      8. B(H   7,C   2)                  1.0923         0.357014   
      9. B(H   8,C   3)                  1.0932         0.355910   
     10. B(H   9,C   4)                  1.0934         0.355687   
     11. B(H  10,C   5)                  1.0931         0.355974   
     12. B(N  11,C   0)                  1.3493         0.649899   
     13. B(H  12,N  11)                  1.0156         0.423928   
     14. B(H  13,N  11)                  1.0144         0.425714   
     15. B(N  14,H  10)                  8.9851         0.000000   
     16. B(O  15,N  14)                  1.3149         0.660506   
     17. B(O  16,H  10)                  8.0724         0.000000   
     18. B(O  16,H   9)                  8.2838         0.000000   
     19. B(O  16,C   5)                  8.9745         0.000000   
     20. B(O  16,C   4)                  9.0867         0.000000   
     21. B(O  16,N  14)                  1.3364         0.610197   
     22. A(C   1,C   0,C   5)          119.2201         0.413151   
     23. A(C   1,C   0,N  11)          120.3505         0.424433   
     24. A(C   5,C   0,N  11)          120.4294         0.424062   
     25. A(C   2,C   1,H   6)          120.7734         0.353854   
     26. A(C   0,C   1,H   6)          119.3767         0.344073   
     27. A(C   0,C   1,C   2)          119.8499         0.425953   
     28. A(C   1,C   2,C   3)          120.5412         0.431068   
     29. A(C   1,C   2,H   7)          119.6596         0.354224   
     30. A(C   3,C   2,H   7)          119.7992         0.348307   
     31. A(C   2,C   3,H   8)          120.0273         0.348125   
     32. A(C   4,C   3,H   8)          119.9682         0.348493   
     33. A(C   2,C   3,C   4)          120.0045         0.423911   
     34. A(C   3,C   4,O  16)          156.0464         0.089548   
     35. A(C   3,C   4,H   9)          119.7459         0.348456   
     36. A(C   5,C   4,O  16)           80.9835         0.089560   
     37. A(C   3,C   4,C   5)          120.4550         0.431465   
     38. A(C   5,C   4,H   9)          119.7991         0.353932   
     39. A(H   9,C   4,O  16)           40.3566         0.089424   
     40. A(C   0,C   5,H  10)          119.3552         0.343979   
     41. A(H  10,C   5,O  16)           32.3666         0.089465   
     42. A(C   4,C   5,O  16)           90.2552         0.089614   
     43. A(C   0,C   5,O  16)          147.9032         0.089591   
     44. A(C   0,C   5,C   4)          119.9292         0.425494   
     45. A(C   4,C   5,H  10)          120.7156         0.353981   
     46. A(H  12,N  11,H  13)          117.4110         0.301480   
     47. A(C   0,N  11,H  13)          121.2267         0.360555   
     48. A(C   0,N  11,H  12)          121.3622         0.360297   
     49. A(O  15,N  14,O  16)          140.1220         0.426333   
     50. A(C   4,O  16,C   5)            8.7613         0.089001   
     51. A(C   5,O  16,N  14)          132.4712         0.089598   
     52. A(C   4,O  16,N  14)          135.1521         0.089545   
     53. D(H   6,C   1,C   0,C   5)   -179.9639         0.020026   
     54. D(C   2,C   1,C   0,C   5)      0.0616         0.020026   
     55. D(H   6,C   1,C   0,N  11)      0.0376         0.020026   
     56. D(C   2,C   1,C   0,N  11)   -179.9370         0.020026   
     57. D(C   3,C   2,C   1,C   0)     -0.0354         0.028387   
     58. D(H   7,C   2,C   1,C   0)    179.9513         0.028387   
     59. D(C   3,C   2,C   1,H   6)    179.9904         0.028387   
     60. D(H   7,C   2,C   1,H   6)     -0.0229         0.028387   
     61. D(H   8,C   3,C   2,C   1)   -179.9981         0.022995   
     62. D(H   8,C   3,C   2,H   7)      0.0153         0.022995   
     63. D(C   4,C   3,C   2,H   7)   -179.9922         0.022995   
     64. D(C   4,C   3,C   2,C   1)     -0.0055         0.022995   
     65. D(H   9,C   4,C   3,C   2)   -179.9498         0.025300   
     66. D(C   5,C   4,C   3,H   8)   -179.9875         0.025300   
     67. D(O  16,C   4,C   3,H   8)    -28.8555         0.025300   
     68. D(O  16,C   4,C   3,C   2)    151.1519         0.025300   
     69. D(H   9,C   4,C   3,H   8)      0.0428         0.025300   
     70. D(C   5,C   4,C   3,C   2)      0.0200         0.025300   
     71. D(H  10,C   5,C   4,O  16)     11.5270         0.033097   
     72. D(H  10,C   5,C   4,H   9)      0.0495         0.033097   
     73. D(H  10,C   5,C   4,C   3)   -179.9202         0.033097   
     74. D(C   0,C   5,C   4,H   9)    179.9767         0.033097   
     75. D(C   0,C   5,C   4,C   3)      0.0070         0.033097   
     76. D(O  16,C   5,C   0,N  11)     21.8970         0.021509   
     77. D(O  16,C   5,C   0,C   1)   -158.1015         0.021509   
     78. D(C   0,C   5,C   4,O  16)   -168.5458         0.033097   
     79. D(H  10,C   5,C   0,C   1)    179.8808         0.021509   
     80. D(C   4,C   5,C   0,N  11)    179.9511         0.021509   
     81. D(H  10,C   5,C   0,N  11)     -0.1207         0.021509   
     82. D(O  16,C   5,C   4,C   3)    168.5528         0.033097   
     83. D(C   4,C   5,C   0,C   1)     -0.0474         0.021509   
     84. D(O  16,C   5,C   4,H   9)    -11.4775         0.033097   
     85. D(H  13,N  11,C   0,C   5)     -0.0464         0.034468   
     86. D(H  13,N  11,C   0,C   1)    179.9521         0.034468   
     87. D(H  12,N  11,C   0,C   5)   -179.9937         0.034468   
     88. D(H  12,N  11,C   0,C   1)      0.0048         0.034468   
     89. D(C   5,O  16,N  14,O  15)     75.9000         0.041371   
     90. D(C   4,O  16,C   5,H  10)   -161.2818         0.001500   
     91. D(C   4,O  16,C   5,C   0)    161.1014         0.001500   
     92. D(N  14,O  16,C   5,H  10)    -49.5273         0.001500   
     93. D(N  14,O  16,C   5,C   4)    111.7545         0.001500   
     94. D(N  14,O  16,C   5,C   0)    -87.1441         0.001500   
     95. D(C   5,O  16,C   4,H   9)    164.5345         0.001500   
     96. D(C   5,O  16,C   4,C   3)   -155.0777         0.001500   
     97. D(N  14,O  16,C   4,H   9)     88.2613         0.001500   
     98. D(C   4,O  16,N  14,O  15)     87.4722         0.041371   
     99. D(N  14,O  16,C   4,C   5)    -76.2732         0.001500   
    100. D(N  14,O  16,C   4,C   3)    128.6491         0.001500   
    -----------------------------------------------------------------

Number of atoms                         .... 17
Number of degrees of freedom            .... 100

         *************************************************************
         *                GEOMETRY OPTIMIZATION CYCLE   1            *
         *************************************************************
---------------------------------
CARTESIAN COORDINATES (ANGSTROEM)
---------------------------------
  C     -3.724650    0.789010    0.041830
  C     -4.680120   -0.250110    0.264180
  C     -4.290130   -1.574840    0.175640
  C     -2.954950   -1.910030   -0.133580
  C     -2.006060   -0.892030   -0.355280
  C     -2.373470    0.439780   -0.271680
  H     -5.714420    0.014100    0.503550
  H     -5.022870   -2.366640    0.346980
  H     -2.656020   -2.959360   -0.201430
  H     -0.972730   -1.156570   -0.595440
  H     -1.641210    1.232880   -0.444120
  N     -4.093620    2.084070    0.126860
  H     -5.048900    2.348030    0.348600
  H     -3.426260    2.832280   -0.027710
  N      6.999490    3.519360   -1.361740
  O      7.197750    4.734740   -1.822640
  O      6.262410    2.875040   -0.452000

----------------------------
CARTESIAN COORDINATES (A.U.)
----------------------------
  NO LB      ZA    FRAG     MASS         X           Y           Z
   0 C     6.0000    0    12.011   -7.038568    1.491013    0.079047
   1 C     6.0000    0    12.011   -8.844145   -0.472639    0.499228
   2 C     6.0000    0    12.011   -8.107171   -2.976016    0.331911
   3 C     6.0000    0    12.011   -5.584046   -3.609434   -0.252430
   4 C     6.0000    0    12.011   -3.790904   -1.685692   -0.671382
   5 C     6.0000    0    12.011   -4.485208    0.831064   -0.513401
   6 H     1.0000    0     1.008  -10.798689    0.026645    0.951572
   7 H     1.0000    0     1.008   -9.491849   -4.472301    0.655697
   8 H     1.0000    0     1.008   -5.019150   -5.592380   -0.380648
   9 H     1.0000    0     1.008   -1.838193   -2.185601   -1.125219
  10 H     1.0000    0     1.008   -3.101437    2.329806   -0.839265
  11 N     7.0000    0    14.007   -7.735821    3.938322    0.239731
  12 H     1.0000    0     1.008   -9.541038    4.437134    0.658759
  13 H     1.0000    0     1.008   -6.474693    5.352234   -0.052364
  14 N     7.0000    0    14.007   13.227119    6.650627   -2.573316
  15 O     8.0000    0    15.999   13.601776    8.947362   -3.444290
  16 O     8.0000    0    15.999   11.834240    5.433038   -0.854156

--------------------------------
INTERNAL COORDINATES (ANGSTROEM)
--------------------------------
 C      0   0   0     0.000000000000     0.00000000     0.00000000
 C      1   0   0     1.429032126231     0.00000000     0.00000000
 C      2   1   0     1.383777837877   119.84993703     0.00000000
 C      3   2   1     1.410912816903   120.54117512   359.96458534
 C      4   3   2     1.409207976879   120.00448576     0.00000000
 C      5   4   3     1.384087043578   120.45501493     0.00000000
 H      2   1   3     1.094020754374   119.37670786   179.97452623
 H      3   2   1     1.092342685790   119.65960796   179.95127516
 H      4   3   2     1.093186267889   120.02726719   180.00192700
 H      5   4   3     1.093356815546   119.74589549   180.05024929
 H      6   5   4     1.093136712036   120.71556125   180.07981439
 N      1   2   3     1.349277349324   120.35047601   180.06304689
 H     12   1   2     1.015580320605   121.36223895     0.00000000
 H     12   1   2     1.014435536937   121.22672061   179.95212148
 N     11   6   5     8.985082845739   147.66490009   347.05918183
 O     15  11   6     1.314870481074   114.58370804   167.80906315
 O     15  11   6     1.336436327103    43.73090060   305.76094065

---------------------------
INTERNAL COORDINATES (A.U.)
---------------------------
 C      0   0   0     0.000000000000     0.00000000     0.00000000
 C      1   0   0     2.700479355152     0.00000000     0.00000000
 C      2   1   0     2.614961143778   119.84993703     0.00000000
 C      3   2   1     2.666238822785   120.54117512   359.96458534
 C      4   3   2     2.663017142039   120.00448576     0.00000000
 C      5   4   3     2.615545457871   120.45501493     0.00000000
 H      2   1   3     2.067399610592   119.37670786   179.97452623
 H      3   2   1     2.064228520536   119.65960796   179.95127516
 H      4   3   2     2.065822659673   120.02726719   180.00192700
 H      5   4   3     2.066144948037   119.74589549   180.05024929
 H      6   5   4     2.065729012682   120.71556125   180.07981439
 N      1   2   3     2.549764668926   120.35047601   180.06304689
 H     12   1   2     1.919168672943   121.36223895     0.00000000
 H     12   1   2     1.917005345328   121.22672061   179.95212148
 N     11   6   5    16.979345869041   147.66490009   347.05918183
 O     15  11   6     2.484745110807   114.58370804   167.80906315
 O     15  11   6     2.525498653648    43.73090060   305.76094065

---------------------
BASIS SET INFORMATION
---------------------
There are 4 groups of distinct atoms

 Group   1 Type C   : 7s4p1d contracted to 3s2p1d pattern {511/31/1}
 Group   2 Type H   : 4s1p contracted to 2s1p pattern {31/1}
 Group   3 Type N   : 7s4p1d contracted to 3s2p1d pattern {511/31/1}
 Group   4 Type O   : 7s4p1d contracted to 3s2p1d pattern {511/31/1}

Atom   0C    basis set group =>   1
Atom   1C    basis set group =>   1
Atom   2C    basis set group =>   1
Atom   3C    basis set group =>   1
Atom   4C    basis set group =>   1
Atom   5C    basis set group =>   1
Atom   6H    basis set group =>   2
Atom   7H    basis set group =>   2
Atom   8H    basis set group =>   2
Atom   9H    basis set group =>   2
Atom  10H    basis set group =>   2
Atom  11N    basis set group =>   3
Atom  12H    basis set group =>   2
Atom  13H    basis set group =>   2
Atom  14N    basis set group =>   3
Atom  15O    basis set group =>   4
Atom  16O    basis set group =>   4
---------------------------------
AUXILIARY/J BASIS SET INFORMATION
---------------------------------
There are 4 groups of distinct atoms

 Group   1 Type C   : 12s5p4d2f1g contracted to 6s4p3d1f1g pattern {711111/2111/211/2/1}
 Group   2 Type H   : 5s2p1d contracted to 3s1p1d pattern {311/2/1}
 Group   3 Type N   : 12s5p4d2f1g contracted to 6s4p3d1f1g pattern {711111/2111/211/2/1}
 Group   4 Type O   : 12s5p4d2f1g contracted to 6s4p3d1f1g pattern {711111/2111/211/2/1}

Atom   0C    basis set group =>   1
Atom   1C    basis set group =>   1
Atom   2C    basis set group =>   1
Atom   3C    basis set group =>   1
Atom   4C    basis set group =>   1
Atom   5C    basis set group =>   1
Atom   6H    basis set group =>   2
Atom   7H    basis set group =>   2
Atom   8H    basis set group =>   2
Atom   9H    basis set group =>   2
Atom  10H    basis set group =>   2
Atom  11N    basis set group =>   3
Atom  12H    basis set group =>   2
Atom  13H    basis set group =>   2
Atom  14N    basis set group =>   3
Atom  15O    basis set group =>   4
Atom  16O    basis set group =>   4
------------------------------------------------------------------------------
                           ORCA GTO INTEGRAL CALCULATION
                           -- RI-GTO INTEGRALS CHOSEN --
------------------------------------------------------------------------------
------------------------------------------------------------------------------
                   ___                                                        
                  /   \      - P O W E R E D   B Y -                         
                 /     \                                                     
                 |  |  |   _    _      __       _____    __    __             
                 |  |  |  | |  | |    /  \     |  _  \  |  |  /  |          
                  \  \/   | |  | |   /    \    | | | |  |  | /  /          
                 / \  \   | |__| |  /  /\  \   | |_| |  |  |/  /          
                |  |  |   |  __  | /  /__\  \  |    /   |      \           
                |  |  |   | |  | | |   __   |  |    \   |  |\   \          
                \     /   | |  | | |  |  |  |  | |\  \  |  | \   \       
                 \___/    |_|  |_| |__|  |__|  |_| \__\ |__|  \__/        
                                                                              
                      - O R C A' S   B I G   F R I E N D -                    
                                      &                                       
                       - I N T E G R A L  F E E D E R -                       
                                                                              
 v1 FN, 2020, v2 2021                                                         
------------------------------------------------------------------------------


Reading SHARK input file opt2.SHARKINP.tmp ... ok
----------------------
SHARK INTEGRAL PACKAGE
----------------------

Number of atoms                             ...     17
Number of basis functions                   ...    175
Number of shells                            ...     81
Maximum angular momentum                    ...      2
Integral batch strategy                     ... SHARK/LIBINT Hybrid
RI-J (if used) integral strategy            ... SPLIT-RIJ (Revised 2003 algorithm where possible)
Printlevel                                  ...      1
Contraction scheme used                     ... SEGMENTED contraction
Coulomb Range Separation                    ... NOT USED
Exchange Range Separation                   ... NOT USED
Finite Nucleus Model                        ... NOT USED
Auxiliary Coulomb fitting basis             ... AVAILABLE
   # of basis functions in Aux-J            ...    567
   # of shells in Aux-J                     ...    185
   Maximum angular momentum in Aux-J        ...      4
Auxiliary J/K fitting basis                 ... NOT available
Auxiliary Correlation fitting basis         ... NOT available
Auxiliary 'external' fitting basis          ... NOT available
Integral threshold                          ...     2.500000e-11
Primitive cut-off                           ...     2.500000e-12
Primitive pair pre-selection threshold      ...     2.500000e-12

Calculating pre-screening integrals         ... done (  0.0 sec) Dimension = 81
Organizing shell pair data                  ... done (  0.0 sec)
Shell pair information
Total number of shell pairs                 ...      3321
Shell pairs after pre-screening             ...      2135
Total number of primitive shell pairs       ...     12241
Primitive shell pairs kept                  ...      5931
          la=0 lb=0:    658 shell pairs
          la=1 lb=0:    771 shell pairs
          la=1 lb=1:    245 shell pairs
          la=2 lb=0:    267 shell pairs
          la=2 lb=1:    160 shell pairs
          la=2 lb=2:     34 shell pairs

Calculating one electron integrals          ... done (  0.0 sec)
Calculating RI/J V-Matrix + Cholesky decomp.... done (  0.0 sec)
Calculating Nuclear repulsion               ... done (  0.0 sec) ENN=    384.077893398684 Eh

SHARK setup successfully completed in   0.3 seconds

Maximum memory used throughout the entire GTOINT-calculation: 18.7 MB
-------------------------------------------------------------------------------
                                 ORCA SCF
-------------------------------------------------------------------------------

------------
SCF SETTINGS
------------
Hamiltonian:
 Density Functional     Method          .... DFT(GTOs)
 Exchange Functional    Exchange        .... B88
   X-Alpha parameter    XAlpha          ....  0.666667
   Becke's b parameter  XBeta           ....  0.004200
 Correlation Functional Correlation     .... LYP
 LDA part of GGA corr.  LDAOpt          .... VWN-5
 Gradients option       PostSCFGGA      .... off
 Hybrid DFT is turned on
   Fraction HF Exchange ScalHFX         ....  0.200000
   Scaling of DF-GGA-X  ScalDFX         ....  0.720000
   Scaling of DF-GGA-C  ScalDFC         ....  0.810000
   Scaling of DF-LDA-C  ScalLDAC        ....  1.000000
   Perturbative correction              ....  0.000000
   Density functional embedding theory  .... OFF
   NL short-range parameter             ....  4.800000
 RI-approximation to the Coulomb term is turned on
   Number of AuxJ basis functions       .... 567
   RIJ-COSX (HFX calculated with COS-X)).... on


General Settings:
 Integral files         IntName         .... opt2
 Hartree-Fock type      HFTyp           .... RHF
 Total Charge           Charge          ....    1
 Multiplicity           Mult            ....    1
 Number of Electrons    NEL             ....   72
 Basis Dimension        Dim             ....  175
 Nuclear Repulsion      ENuc            ....    384.0778933987 Eh

Convergence Acceleration:
 DIIS                   CNVDIIS         .... on
   Start iteration      DIISMaxIt       ....    12
   Startup error        DIISStart       ....  0.200000
   # of expansion vecs  DIISMaxEq       ....     5
   Bias factor          DIISBfac        ....   1.050
   Max. coefficient     DIISMaxC        ....  10.000
 Trust-Rad. Augm. Hess. CNVTRAH         .... auto
   Auto Start mean grad. ratio tolernc. ....  1.125000
   Auto Start start iteration           ....    20
   Auto Start num. interpolation iter.  ....    10
   Max. Number of Micro iterations      ....    16
   Max. Number of Macro iterations      .... Maxiter - #DIIS iter
   Number of Davidson start vectors     ....     2
   Converg. threshold I  (grad. norm)   ....   1.000e-05
   Converg. threshold II (energy diff.) ....   1.000e-08
   Grad. Scal. Fac. for Micro threshold ....   0.100
   Minimum threshold for Micro iter.    ....   0.010
   NR start threshold (gradient norm)   ....   0.001
   Initial trust radius                 ....   0.400
   Minimum AH scaling param. (alpha)    ....   1.000
   Maximum AH scaling param. (alpha)    .... 1000.000
   Orbital update algorithm             .... Taylor
   White noise on init. David. guess    .... on
   Maximum white noise                  ....   0.010
   Quad. conv. algorithm                .... NR
 SOSCF                  CNVSOSCF        .... on
   Start iteration      SOSCFMaxIt      ....   150
   Startup grad/error   SOSCFStart      ....  0.003300
 Level Shifting         CNVShift        .... on
   Level shift para.    LevelShift      ....    0.2500
   Turn off err/grad.   ShiftErr        ....    0.0010
 Zerner damping         CNVZerner       .... off
 Static damping         CNVDamp         .... on
   Fraction old density DampFac         ....    0.7000
   Max. Damping (<1)    DampMax         ....    0.9800
   Min. Damping (>=0)   DampMin         ....    0.0000
   Turn off err/grad.   DampErr         ....    0.1000
 Fernandez-Rico         CNVRico         .... off

SCF Procedure:
 Maximum # iterations   MaxIter         ....   125
 SCF integral mode      SCFMode         .... Direct
   Integral package                     .... SHARK and LIBINT hybrid scheme
 Reset frequency        DirectResetFreq ....    20
 Integral Threshold     Thresh          ....  2.500e-11 Eh
 Primitive CutOff       TCut            ....  2.500e-12 Eh

Convergence Tolerance:
 Convergence Check Mode ConvCheckMode   .... Total+1el-Energy
 Convergence forced     ConvForced      .... 0
 Energy Change          TolE            ....  1.000e-08 Eh
 1-El. energy change                    ....  1.000e-05 Eh
 Orbital Gradient       TolG            ....  1.000e-05
 Orbital Rotation angle TolX            ....  1.000e-05
 DIIS Error             TolErr          ....  5.000e-07


Diagonalization of the overlap matrix:
Smallest eigenvalue                        ... 3.097e-04
Time for diagonalization                   ...    0.010 sec
Threshold for overlap eigenvalues          ... 1.000e-08
Number of eigenvalues below threshold      ... 0
Time for construction of square roots      ...    0.005 sec
Total time needed                          ...    0.015 sec

Time for model grid setup =    0.347 sec

------------------------------
INITIAL GUESS: MODEL POTENTIAL
------------------------------
Loading Hartree-Fock densities                     ... done
Calculating cut-offs                               ... done
Initializing the effective Hamiltonian             ... done
Setting up the integral package (SHARK)            ... done
Starting the Coulomb interaction                   ... done (   0.4 sec)
Reading the grid                                   ... done
Mapping shells                                     ... done
Starting the XC term evaluation                    ... done (   1.1 sec)
  promolecular density results
     # of electrons  =     72.997557561
     EX              =    -62.288577762
     EC              =     -2.482339194
     EX+EC           =    -64.770916957
Transforming the Hamiltonian                       ... done (   0.0 sec)
Diagonalizing the Hamiltonian                      ... done (   0.0 sec)
Back transforming the eigenvectors                 ... done (   0.0 sec)
Now organizing SCF variables                       ... done
                      ------------------
                      INITIAL GUESS DONE (   2.0 sec)
                      ------------------
-------------------
DFT GRID GENERATION
-------------------

General Integration Accuracy     IntAcc      ... 4.388
Radial Grid Type                 RadialGrid  ... OptM3 with GC (2021)
Angular Grid (max. ang.)         AngularGrid ... 4 (Lebedev-302)
Angular grid pruning method      GridPruning ... 4 (adaptive)
Weight generation scheme         WeightScheme... Becke
Basis function cutoff            BFCut       ... 1.0000e-11
Integration weight cutoff        WCut        ... 1.0000e-14
Angular grids for H and He will be reduced by one unit
Partially contracted basis set               ... off
Rotationally invariant grid construction     ... off

Total number of grid points                  ...    83140
Total number of batches                      ...     1309
Average number of points per batch           ...       63
Average number of grid points per atom       ...     4891
Time for grid setup =    2.988 sec

--------------------
COSX GRID GENERATION
--------------------

GRIDX 1
-------
General Integration Accuracy     IntAcc      ... 3.816
Radial Grid Type                 RadialGrid  ... OptM3 with GC (2021)
Angular Grid (max. ang.)         AngularGrid ... 1 (Lebedev-50)
Angular grid pruning method      GridPruning ... 4 (adaptive)
Weight generation scheme         WeightScheme... Becke
Basis function cutoff            BFCut       ... 1.0000e-11
Integration weight cutoff        WCut        ... 1.0000e-14
Angular grids for H and He will be reduced by one unit
Partially contracted basis set               ... on
Rotationally invariant grid construction     ... off

Total number of grid points                  ...    10626
Total number of batches                      ...      173
Average number of points per batch           ...       61
Average number of grid points per atom       ...      625
UseSFitting                                  ... on

GRIDX 2
-------
General Integration Accuracy     IntAcc      ... 4.020
Radial Grid Type                 RadialGrid  ... OptM3 with GC (2021)
Angular Grid (max. ang.)         AngularGrid ... 2 (Lebedev-110)
Angular grid pruning method      GridPruning ... 4 (adaptive)
Weight generation scheme         WeightScheme... Becke
Basis function cutoff            BFCut       ... 1.0000e-11
Integration weight cutoff        WCut        ... 1.0000e-14
Angular grids for H and He will be reduced by one unit
Partially contracted basis set               ... on
Rotationally invariant grid construction     ... off

Total number of grid points                  ...    23644
Total number of batches                      ...      378
Average number of points per batch           ...       62
Average number of grid points per atom       ...     1391
UseSFitting                                  ... on

GRIDX 3
-------
General Integration Accuracy     IntAcc      ... 4.338
Radial Grid Type                 RadialGrid  ... OptM3 with GC (2021)
Angular Grid (max. ang.)         AngularGrid ... 3 (Lebedev-194)
Angular grid pruning method      GridPruning ... 4 (adaptive)
Weight generation scheme         WeightScheme... Becke
Basis function cutoff            BFCut       ... 1.0000e-11
Integration weight cutoff        WCut        ... 1.0000e-14
Angular grids for H and He will be reduced by one unit
Partially contracted basis set               ... on
Rotationally invariant grid construction     ... off

Total number of grid points                  ...    52183
Total number of batches                      ...      824
Average number of points per batch           ...       63
Average number of grid points per atom       ...     3070
UseSFitting                                  ... on

Time for X-Grid setup             =    2.674 sec

--------------
SCF ITERATIONS
--------------
ITER       Energy         Delta-E        Max-DP      RMS-DP      [F,P]     Damp
               ***  Starting incremental Fock matrix formation  ***
  0   -491.1853499378   0.000000000000 0.28006293  0.00511927  0.2252964 0.7000
  1   -491.4067231003  -0.221373162538 0.06027800  0.00180445  0.0933557 0.7000
                               ***Turning on DIIS***
  2   -491.5267468518  -0.120023751463 0.13356236  0.00379154  0.0369499 0.0000
  3   -491.5099427809   0.016804070847 0.00798792  0.00018571  0.1020178 0.7000
  4   -491.5157600547  -0.005817273819 0.02466046  0.00060885  0.0922411 0.0000
  5   -491.5312676391  -0.015507584333 0.02767890  0.00041129  0.0701427 0.0000
  6   -491.5397587108  -0.008491071767 0.27013776  0.00996089  0.0610605 0.0000
  7   -491.1202741570   0.419484553863 0.00521219  0.00010201  0.2128383 0.7000
  8   -491.1216292940  -0.001355137080 0.00730845  0.00011548  0.2133310 0.7000
  9   -491.1258013793  -0.004172085286 0.00994318  0.00016694  0.2125541 0.7000
 10   -491.1351873893  -0.009386009939 0.00825071  0.00014724  0.2083256 0.7000
 11   -491.1437545326  -0.008567143318 0.22187071  0.00617398  0.2041135 0.7000
 12   -491.1316035921   0.012150940442 0.21169794  0.00867296  0.0776932 0.0000
 13   -491.3085534416  -0.176949849415 0.02910149  0.00045296  0.2211915 0.7000
 14   -491.3561458563  -0.047592414776 0.02735211  0.00046859  0.1948887 0.7000
 15   -491.4001949347  -0.044049078352 0.02174261  0.00040553  0.1671296 0.7000
 16   -491.4343302368  -0.034135302078 0.08572934  0.00314031  0.1460054 0.7000
 17   -491.6334514229  -0.199121186096 0.23885905  0.00747735  0.0875922 0.0000
 18   -491.1930992860   0.440352136864 0.01632834  0.00035950  0.1722414 0.7000
 19   -491.2138539362  -0.020754650182 0.01778658  0.00038632  0.1641622 0.7000
               *** Restarting incremental Fock matrix formation ***
                                   *** Resetting DIIS ***

 WARNING: the maximum gradient error descreased on average only by a factor   1.0
          during the last 20 iterations

                      *** Initiating the TRAH-SCF procedure ***


TRAH GRIDX
----------

General Integration Accuracy     IntAcc      ... 3.067
Radial Grid Type                 RadialGrid  ... OptM3 with GC (2021)
Angular Grid (max. ang.)         AngularGrid ... 1 (Lebedev-50)
Angular grid pruning method      GridPruning ... 4 (adaptive)
Weight generation scheme         WeightScheme... Becke
Basis function cutoff            BFCut       ... 1.0000e-11
Integration weight cutoff        WCut        ... 1.0000e-14
Angular grids for H and He will be reduced by one unit
Partially contracted basis set               ... on
Rotationally invariant grid construction     ... off

Total number of grid points                  ...     5635
Total number of batches                      ...       99
Average number of points per batch           ...       56
Average number of grid points per atom       ...      331


TRAH GRID
---------

General Integration Accuracy     IntAcc      ... 3.467
Radial Grid Type                 RadialGrid  ... OptM3 with GC (2021)
Angular Grid (max. ang.)         AngularGrid ... 1 (Lebedev-50)
Angular grid pruning method      GridPruning ... 4 (adaptive)
Weight generation scheme         WeightScheme... Becke
Basis function cutoff            BFCut       ... 1.0000e-11
Integration weight cutoff        WCut        ... 1.0000e-14
Angular grids for H and He will be reduced by one unit
Partially contracted basis set               ... off
Rotationally invariant grid construction     ... off

Total number of grid points                  ...    12344
Total number of batches                      ...      202
Average number of points per batch           ...       61
Average number of grid points per atom       ...      726

 --------------------------------------------------------------------------------------------
   Iter.        energy            ||Error||_2        Shift      TRadius  Mac/Mic        Rej.
 --------------------------------------------------------------------------------------------
WARNING: 77 diagonal Hessian elements are negative!
    0       -491.279074160151     1.120118e+00                     0.400 (TRAH MAcro)   No
WARNING : negative HOMO - LUMO gap : -0.699545
    0     dE    -6.506097e-02     6.439199e-01    -1.2843e-01      0.115 (TRAH MIcro)
    0     dE    -8.079462e-02     1.009797e+00    -1.5561e-01      0.196 (TRAH MIcro)
    0     dE    -9.558546e-02     1.613602e-01    -2.6972e+00      0.171 (TRAH MIcro)
    0     dE    -2.802042e-01     2.639942e-01    -2.7963e+00      0.400 (TRAH MIcro)
    0     dE    -5.929429e-02     1.449569e-01    -6.3764e+00      0.075 (TRAH MIcro)
    0     dE    -5.951302e-02     7.050915e-02    -6.3958e+00      0.076 (TRAH MIcro)
    0     dE    -5.958432e-02     9.083752e-03    -6.4069e+00      0.076 (TRAH MIcro)
WARNING: 60 diagonal Hessian elements are negative!
    1       -491.338671322439     4.845513e-01                     0.480 (TRAH MAcro)   No
WARNING : negative HOMO - LUMO gap : -0.611606
    1     dE    -1.455828e-02     1.808626e-01    -2.9013e-02      0.060 (TRAH MIcro)
    1     dE    -1.784328e-02     8.778970e-02    -3.5408e-02      0.089 (TRAH MIcro)
    1     dE    -1.843458e-02     8.077028e-02    -3.6556e-02      0.093 (TRAH MIcro)
    1     dE    -1.663718e-02     4.221159e-02    -2.0185e+00      0.060 (TRAH MIcro)
    1     dE    -5.474794e-02     4.208227e-01    -2.0927e+00      0.199 (TRAH MIcro)
    1     dE    -1.358477e-02     1.835658e-02    -5.1842e+00      0.040 (TRAH MIcro)
    1     dE    -1.360001e-02     3.117986e-03    -5.1881e+00      0.040 (TRAH MIcro)
WARNING: 52 diagonal Hessian elements are negative!
    2       -491.352280347145     2.093960e-01                     0.576 (TRAH MAcro)   No
WARNING : negative HOMO - LUMO gap : -0.572895
    2     dE    -3.425629e-03     1.026089e-01    -6.8439e-03      0.033 (TRAH MIcro)
    2     dE    -4.625850e-03     6.151220e-02    -9.2240e-03      0.055 (TRAH MIcro)
    2     dE    -4.917004e-03     2.040039e-02    -9.8000e-03      0.059 (TRAH MIcro)
    2     dE    -4.960419e-03     6.706794e-02    -9.8840e-03      0.061 (TRAH MIcro)
    2     dE    -3.535715e-01     7.306728e-01    -2.1102e+00      0.576 (TRAH MIcro)
    2     dE    -3.255117e-03     2.042927e-02    -4.5206e+00      0.022 (TRAH MIcro)
    2     dE    -3.283745e-03     4.039934e-03    -4.5478e+00      0.022 (TRAH MIcro)
WARNING: 50 diagonal Hessian elements are negative!
    3       -491.355565884830     1.000336e-01                     0.691 (TRAH MAcro)   No
WARNING : negative HOMO - LUMO gap : -0.556342
    3     dE    -1.102500e-03     6.352783e-02    -2.2039e-03      0.022 (TRAH MIcro)
    3     dE    -1.548161e-03     4.309364e-02    -3.0921e-03      0.037 (TRAH MIcro)
    3     dE    -1.717999e-03     1.080378e-01    -3.4293e-03      0.044 (TRAH MIcro)
    3     dE    -9.253195e-04     1.161200e-02    -4.6881e+00      0.012 (TRAH MIcro)
    3     dE    -5.195413e-01     6.144104e-01    -2.1707e+00      0.691 (TRAH MIcro)
    3     dE    -9.359961e-04     2.144557e-03    -4.7247e+00      0.012 (TRAH MIcro)
WARNING: 50 diagonal Hessian elements are negative!
    4       -491.356502218984     5.752861e-02                     0.829 (TRAH MAcro)   No
WARNING : negative HOMO - LUMO gap : -0.549676
    4     dE    -5.156408e-04     3.953348e-02    -1.0310e-03      0.018 (TRAH MIcro)
    4     dE    -6.951904e-04     3.951397e-02    -1.3893e-03      0.028 (TRAH MIcro)
    4     dE    -2.893364e-02     5.545890e+00    -7.9548e-02      0.783 (TRAH MIcro)
    4     dE    -4.838048e-04     6.765373e-03    -2.5409e+00      0.012 (TRAH MIcro)
    4     dE    -4.889506e-04     2.094196e-03    -2.5615e+00      0.012 (TRAH MIcro)
WARNING: 50 diagonal Hessian elements are negative!
    5       -491.356991369727     2.968434e-02                     0.995 (TRAH MAcro)   No
WARNING : negative HOMO - LUMO gap : -0.545671
    5     dE    -2.061983e-04     5.310654e-02    -4.1231e-04      0.014 (TRAH MIcro)
    5     dE    -1.414093e-01     2.091152e+00    -1.0725e+00      0.510 (TRAH MIcro)
    5     dE    -4.267164e-01     5.051095e-01    -2.1460e+00      0.630 (TRAH MIcro)
    5     dE    -6.974789e-01     1.357345e-01    -2.2189e+00      0.792 (TRAH MIcro)
    5     dE    -7.180234e-01     2.748054e-02    -2.2230e+00      0.803 (TRAH MIcro)
    5     dE    -7.270068e-01     1.530958e-02    -2.2233e+00      0.808 (TRAH MIcro)
    5     dE    -7.316611e-01     5.258664e-03    -2.2234e+00      0.811 (TRAH MIcro)
    5     dE    -7.322126e-01     2.948440e-03    -2.2234e+00      0.811 (TRAH MIcro)
WARNING: 1 diagonal Hessian elements are negative!
    6       -491.613245957223     1.098571e+00                     0.995 (TRAH MAcro)   No
WARNING : negative HOMO - LUMO gap : -0.002231
    6     dE    -6.336459e-02     7.362154e-01    -1.2503e-01      0.116 (TRAH MIcro)
    6     dE    -7.858908e-02     2.633136e-01    -1.5242e-01      0.177 (TRAH MIcro)
    6     dE    -8.102093e-02     8.193663e-02    -1.5656e-01      0.187 (TRAH MIcro)
    6     dE    -8.126752e-02     3.311997e-02    -1.5702e-01      0.187 (TRAH MIcro)
    6     dE    -8.131705e-02     1.036096e-02    -1.5713e-01      0.187 (TRAH MIcro)
    6     dE    -8.132304e-02     5.210408e-03    -1.5714e-01      0.187 (TRAH MIcro)
    7       -491.694074262388     3.634773e-02                     1.194 (TRAH MAcro)   No
WARNING : small    HOMO - LUMO gap : 0.010330
    7     dE    -8.477104e-05     4.553598e-02    -1.6954e-04      0.005 (TRAH MIcro)
    7     dE    -1.074205e-04     3.883418e-02    -2.1483e-04      0.008 (TRAH MIcro)
    7     dE    -1.433844e-04     2.391326e-02    -2.8673e-04      0.011 (TRAH MIcro)
    7     dE    -1.553565e-04     4.212370e-03    -3.1067e-04      0.012 (TRAH MIcro)
    7     dE    -1.561003e-04     2.383021e-03    -3.1215e-04      0.012 (TRAH MIcro)
    8       -491.694230492199     2.399448e-03                     1.433 (TRAH MAcro)   No
WARNING : small    HOMO - LUMO gap : 0.009494
    8     dE    -2.486427e-07     2.334356e-03    -4.9729e-07      0.000 (TRAH MIcro)
    8     dE    -2.887715e-07     2.034432e-03    -5.7755e-07      0.000 (TRAH MIcro)
    8     dE    -3.921280e-07     4.968975e-04    -7.8426e-07      0.000 (TRAH MIcro)
    8     dE    -4.076178e-07     2.814151e-04    -8.1524e-07      0.001 (TRAH MIcro)
    8     dE    -4.151137e-07     1.089557e-04    -8.3023e-07      0.001 (TRAH MIcro)
    9       -491.694230915113     1.090203e-04                           (NR   MAcro)
WARNING : small    HOMO - LUMO gap : 0.009491
    9     dE    -5.601806e-10     5.760631e-05                           (NR   MIcro)
    9     dE    -6.642499e-10     3.571288e-05                           (NR   MIcro)
    9     dE    -7.275697e-10     2.842491e-05                           (NR   MIcro)
    9     dE    -7.832355e-10     1.400542e-05                           (NR   MIcro)
    9     dE    -7.993132e-10     8.794473e-06                           (NR   MIcro)
    9     dE    -8.041666e-10     4.342385e-06                           (NR   MIcro)
    9     dE    -8.046207e-10     1.959028e-06                           (NR   MIcro)
    9     dE    -8.046988e-10     7.080348e-07                           (NR   MIcro)
   10       -491.694230915757     7.142633e-07                           (NR   MAcro)
WARNING : small    HOMO - LUMO gap : 0.009491

               *****************************************************
               *                     SUCCESS                       *
               *           SCF CONVERGED AFTER  95 CYCLES          *
               *****************************************************

Old exchange energy                            =    -12.437763602 Eh
New exchange energy                            =    -12.437778638 Eh
Exchange energy change after final integration =     -0.000015036 Eh
Total energy after final integration           =   -491.694245951 Eh
Final COS-X integration done in                =    29.076 sec

----------------
TOTAL SCF ENERGY
----------------

Total Energy       :         -491.69424595 Eh          -13379.68064 eV

Components:
Nuclear Repulsion  :          384.07789340 Eh           10451.29081 eV
Electronic Energy  :         -875.77213935 Eh          -23830.97145 eV
One Electron Energy:        -1416.84092116 Eh          -38554.20152 eV
Two Electron Energy:          541.06878181 Eh           14723.23007 eV
Max COSX asymmetry :            0.00000189 Eh               0.00005 eV

Virial components:
Potential Energy   :         -978.57771919 Eh          -26628.45350 eV
Kinetic Energy     :          486.88347324 Eh           13248.77286 eV
Virial Ratio       :            2.00988075


DFT components:
N(Alpha)           :       35.999989287743 electrons
N(Beta)            :       35.999989287743 electrons
N(Total)           :       71.999978575486 electrons
E(X)               :      -49.737504369922 Eh       
E(C)               :       -2.895892401102 Eh       
E(XC)              :      -52.633396771024 Eh       
DFET-embed. en.    :        0.000000000000 Eh       

---------------
SCF CONVERGENCE
---------------

  Last Energy change         ...   -6.4472e-10  Tolerance :   1.0000e-08
  Last Orbital Gradient      ...    7.1426e-07  Tolerance :   1.0000e-05
  Last Orbital Rotation      ...    4.3397e-05

             **** THE GBW FILE WAS UPDATED (opt2.gbw) ****
             **** DENSITY opt2.scfp WAS UPDATED ****
             **** ENERGY FILE WAS UPDATED (opt2.en.tmp) ****
             **** THE GBW FILE WAS UPDATED (opt2.gbw) ****
             **** DENSITY opt2.scfp WAS UPDATED ****
----------------
ORBITAL ENERGIES
----------------

  NO   OCC          E(Eh)            E(eV) 
   0   2.0000     -19.392809      -527.7052 
   1   2.0000     -19.387841      -527.5700 
   2   2.0000     -14.696105      -399.9013 
   3   2.0000     -14.542541      -395.7227 
   4   2.0000     -10.418845      -283.5112 
   5   2.0000     -10.359044      -281.8839 
   6   2.0000     -10.357871      -281.8520 
   7   2.0000     -10.356900      -281.8256 
   8   2.0000     -10.350394      -281.6485 
   9   2.0000     -10.349772      -281.6316 
  10   2.0000      -1.291371       -35.1400 
  11   2.0000      -1.178733       -32.0750 
  12   2.0000      -1.105320       -30.0773 
  13   2.0000      -0.997015       -27.1302 
  14   2.0000      -0.903341       -24.5812 
  15   2.0000      -0.885483       -24.0952 
  16   2.0000      -0.794488       -21.6191 
  17   2.0000      -0.776770       -21.1370 
  18   2.0000      -0.770678       -20.9712 
  19   2.0000      -0.696833       -18.9618 
  20   2.0000      -0.693275       -18.8650 
  21   2.0000      -0.664595       -18.0846 
  22   2.0000      -0.644399       -17.5350 
  23   2.0000      -0.629033       -17.1169 
  24   2.0000      -0.628092       -17.0913 
  25   2.0000      -0.601063       -16.3557 
  26   2.0000      -0.589727       -16.0473 
  27   2.0000      -0.581751       -15.8303 
  28   2.0000      -0.562939       -15.3183 
  29   2.0000      -0.522292       -14.2123 
  30   2.0000      -0.503294       -13.6953 
  31   2.0000      -0.489115       -13.3095 
  32   2.0000      -0.484801       -13.1921 
  33   2.0000      -0.483456       -13.1555 
  34   2.0000      -0.417787       -11.3686 
  35   2.0000      -0.357760        -9.7351 
  36   0.0000      -0.348269        -9.4769 
  37   0.0000      -0.258176        -7.0253 
  38   0.0000      -0.163429        -4.4471 
  39   0.0000      -0.154514        -4.2045 
  40   0.0000      -0.093932        -2.5560 
  41   0.0000      -0.072183        -1.9642 
  42   0.0000      -0.063409        -1.7254 
  43   0.0000      -0.059591        -1.6215 
  44   0.0000      -0.013209        -0.3594 
  45   0.0000      -0.009997        -0.2720 
  46   0.0000      -0.007013        -0.1908 
  47   0.0000       0.019956         0.5430 
  48   0.0000       0.031172         0.8482 
  49   0.0000       0.094851         2.5810 
  50   0.0000       0.125622         3.4183 
  51   0.0000       0.137579         3.7437 
  52   0.0000       0.142046         3.8653 
  53   0.0000       0.150868         4.1053 
  54   0.0000       0.158462         4.3120 
  55   0.0000       0.213417         5.8074 
  56   0.0000       0.255352         6.9485 
  57   0.0000       0.261992         7.1292 
  58   0.0000       0.269810         7.3419 
  59   0.0000       0.283894         7.7251 
  60   0.0000       0.314303         8.5526 
  61   0.0000       0.341268         9.2864 
  62   0.0000       0.349051         9.4982 
  63   0.0000       0.352141         9.5822 
  64   0.0000       0.374624        10.1940 
  65   0.0000       0.378513        10.2999 
  66   0.0000       0.378630        10.3030 
  67   0.0000       0.386486        10.5168 
  68   0.0000       0.389424        10.5968 
  69   0.0000       0.450871        12.2688 
  70   0.0000       0.456491        12.4217 
  71   0.0000       0.487809        13.2740 
  72   0.0000       0.503866        13.7109 
  73   0.0000       0.528110        14.3706 
  74   0.0000       0.534492        14.5443 
  75   0.0000       0.534840        14.5537 
  76   0.0000       0.546717        14.8769 
  77   0.0000       0.553921        15.0730 
  78   0.0000       0.560419        15.2498 
  79   0.0000       0.564149        15.3513 
  80   0.0000       0.564683        15.3658 
  81   0.0000       0.578591        15.7442 
  82   0.0000       0.597177        16.2500 
  83   0.0000       0.605606        16.4794 
  84   0.0000       0.621129        16.9018 
  85   0.0000       0.652081        17.7440 
  86   0.0000       0.668617        18.1940 
  87   0.0000       0.716065        19.4851 
  88   0.0000       0.739355        20.1189 
  89   0.0000       0.755278        20.5522 
  90   0.0000       0.757953        20.6249 
  91   0.0000       0.781303        21.2603 
  92   0.0000       0.811324        22.0773 
  93   0.0000       0.854169        23.2431 
  94   0.0000       0.869490        23.6600 
  95   0.0000       0.899148        24.4671 
  96   0.0000       0.900778        24.5114 
  97   0.0000       0.983319        26.7575 
  98   0.0000       1.022234        27.8164 
  99   0.0000       1.052985        28.6532 
 100   0.0000       1.090281        29.6680 
 101   0.0000       1.094753        29.7898 
 102   0.0000       1.095265        29.8037 
 103   0.0000       1.108575        30.1658 
 104   0.0000       1.113069        30.2881 
 105   0.0000       1.123770        30.5793 
 106   0.0000       1.149199        31.2713 
 107   0.0000       1.164981        31.7007 
 108   0.0000       1.174541        31.9609 
 109   0.0000       1.256055        34.1790 
 110   0.0000       1.345505        36.6130 
 111   0.0000       1.455131        39.5961 
 112   0.0000       1.512296        41.1517 
 113   0.0000       1.521985        41.4153 
 114   0.0000       1.560721        42.4694 
 115   0.0000       1.567481        42.6533 
 116   0.0000       1.586979        43.1839 
 117   0.0000       1.587436        43.1963 
 118   0.0000       1.590135        43.2698 
 119   0.0000       1.595089        43.4046 
 120   0.0000       1.627706        44.2921 
 121   0.0000       1.638968        44.5986 
 122   0.0000       1.641748        44.6742 
 123   0.0000       1.651135        44.9297 
 124   0.0000       1.686636        45.8957 
 125   0.0000       1.706522        46.4368 
 126   0.0000       1.758536        47.8522 
 127   0.0000       1.791631        48.7528 
 128   0.0000       1.799586        48.9692 
 129   0.0000       1.809045        49.2266 
 130   0.0000       1.822723        49.5988 
 131   0.0000       1.828605        49.7589 
 132   0.0000       1.878219        51.1089 
 133   0.0000       1.952285        53.1244 
 134   0.0000       1.960378        53.3446 
 135   0.0000       1.960612        53.3510 
 136   0.0000       1.973025        53.6887 
 137   0.0000       1.979605        53.8678 
 138   0.0000       2.017770        54.9063 
 139   0.0000       2.026001        55.1303 
 140   0.0000       2.068196        56.2785 
 141   0.0000       2.070592        56.3437 
 142   0.0000       2.101002        57.1712 
 143   0.0000       2.150863        58.5280 
 144   0.0000       2.191568        59.6356 
 145   0.0000       2.194159        59.7061 
 146   0.0000       2.194814        59.7239 
 147   0.0000       2.320073        63.1324 
 148   0.0000       2.376580        64.6700 
 149   0.0000       2.411688        65.6254 
 150   0.0000       2.425686        66.0063 
 151   0.0000       2.426553        66.0299 
 152   0.0000       2.443443        66.4895 
 153   0.0000       2.447162        66.5907 
 154   0.0000       2.465432        67.0878 
 155   0.0000       2.510944        68.3263 
 156   0.0000       2.545778        69.2742 
 157   0.0000       2.567600        69.8680 
 158   0.0000       2.572618        70.0045 
 159   0.0000       2.602324        70.8128 
 160   0.0000       2.655935        72.2717 
 161   0.0000       2.667156        72.5770 
 162   0.0000       2.713342        73.8338 
 163   0.0000       2.763679        75.2035 
 164   0.0000       2.777950        75.5919 
 165   0.0000       2.841357        77.3172 
 166   0.0000       2.918152        79.4070 
 167   0.0000       2.932249        79.7906 
 168   0.0000       2.982279        81.1519 
 169   0.0000       3.012173        81.9654 
 170   0.0000       3.037850        82.6641 
 171   0.0000       3.279546        89.2410 
 172   0.0000       3.362663        91.5027 
 173   0.0000       3.466420        94.3261 
 174   0.0000       3.535806        96.2142 

                    ********************************
                    * MULLIKEN POPULATION ANALYSIS *
                    ********************************

-----------------------
MULLIKEN ATOMIC CHARGES
-----------------------
   0 C :    0.048690
   1 C :    0.032987
   2 C :    0.028590
   3 C :    0.071289
   4 C :    0.027355
   5 C :    0.033335
   6 H :    0.022628
   7 H :    0.045742
   8 H :    0.051787
   9 H :    0.042252
  10 H :    0.017529
  11 N :    0.030914
  12 H :    0.165223
  13 H :    0.162842
  14 N :    0.349729
  15 O :   -0.054320
  16 O :   -0.076570
Sum of atomic charges:    1.0000000

--------------------------------
MULLIKEN REDUCED ORBITAL CHARGES
--------------------------------
  0 C s       :     3.014751  s :     3.014751
      pz      :     0.893271  p :     2.874579
      px      :     1.045060
      py      :     0.936247
      dz2     :     0.005088  d :     0.061980
      dxz     :     0.007245
      dyz     :     0.013997
      dx2y2   :     0.018649
      dxy     :     0.017002
  1 C s       :     3.214582  s :     3.214582
      pz      :     0.969743  p :     2.720388
      px      :     0.825682
      py      :     0.924964
      dz2     :     0.002636  d :     0.032042
      dxz     :     0.002623
      dyz     :     0.005575
      dx2y2   :     0.009203
      dxy     :     0.012005
  2 C s       :     3.177152  s :     3.177152
      pz      :     0.924009  p :     2.759625
      px      :     0.913298
      py      :     0.922318
      dz2     :     0.002746  d :     0.034633
      dxz     :     0.004089
      dyz     :     0.005047
      dx2y2   :     0.010724
      dxy     :     0.012028
  3 C s       :     3.185178  s :     3.185178
      pz      :     0.871702  p :     2.709076
      px      :     0.949072
      py      :     0.888302
      dz2     :     0.002896  d :     0.034457
      dxz     :     0.005551
      dyz     :     0.003207
      dx2y2   :     0.011735
      dxy     :     0.011068
  4 C s       :     3.176077  s :     3.176077
      pz      :     0.926373  p :     2.761864
      px      :     0.889779
      py      :     0.945712
      dz2     :     0.002636  d :     0.034704
      dxz     :     0.003032
      dyz     :     0.006192
      dx2y2   :     0.011822
      dxy     :     0.011022
  5 C s       :     3.212634  s :     3.212634
      pz      :     0.975065  p :     2.722010
      px      :     0.873706
      py      :     0.873239
      dz2     :     0.002704  d :     0.032022
      dxz     :     0.003522
      dyz     :     0.004683
      dx2y2   :     0.010277
      dxy     :     0.010837
  6 H s       :     0.954217  s :     0.954217
      pz      :     0.005069  p :     0.023155
      px      :     0.014520
      py      :     0.003566
  7 H s       :     0.931195  s :     0.931195
      pz      :     0.004252  p :     0.023063
      px      :     0.008869
      py      :     0.009943
  8 H s       :     0.925354  s :     0.925354
      pz      :     0.003856  p :     0.022859
      px      :     0.004010
      py      :     0.014993
  9 H s       :     0.934749  s :     0.934749
      pz      :     0.004580  p :     0.022999
      px      :     0.014480
      py      :     0.003940
 10 H s       :     0.959307  s :     0.959307
      pz      :     0.004853  p :     0.023165
      px      :     0.009087
      py      :     0.009225
 11 N s       :     3.302759  s :     3.302759
      pz      :     1.521803  p :     3.650654
      px      :     1.067265
      py      :     1.061587
      dz2     :     0.001446  d :     0.015673
      dxz     :     0.000606
      dyz     :     0.002836
      dx2y2   :     0.004925
      dxy     :     0.005860
 12 H s       :     0.790305  s :     0.790305
      pz      :     0.011417  p :     0.044472
      px      :     0.024484
      py      :     0.008571
 13 H s       :     0.792608  s :     0.792608
      pz      :     0.011032  p :     0.044551
      px      :     0.015645
      py      :     0.017874
 14 N s       :     3.526648  s :     3.526648
      pz      :     1.004147  p :     3.060672
      px      :     1.048767
      py      :     1.007758
      dz2     :     0.013210  d :     0.062952
      dxz     :     0.009043
      dyz     :     0.013267
      dx2y2   :     0.014635
      dxy     :     0.012797
 15 O s       :     3.918928  s :     3.918928
      pz      :     1.502075  p :     4.116779
      px      :     1.533936
      py      :     1.080768
      dz2     :     0.002416  d :     0.018613
      dxz     :     0.000765
      dyz     :     0.005673
      dx2y2   :     0.005409
      dxy     :     0.004350
 16 O s       :     3.923787  s :     3.923787
      pz      :     1.259728  p :     4.135499
      px      :     1.339647
      py      :     1.536124
      dz2     :     0.003486  d :     0.017284
      dxz     :     0.004328
      dyz     :     0.004168
      dx2y2   :     0.002221
      dxy     :     0.003080


                     *******************************
                     * LOEWDIN POPULATION ANALYSIS *
                     *******************************

----------------------
LOEWDIN ATOMIC CHARGES
----------------------
   0 C :    0.072771
   1 C :   -0.000504
   2 C :    0.020259
   3 C :    0.064484
   4 C :    0.017339
   5 C :   -0.001991
   6 H :    0.048777
   7 H :    0.055719
   8 H :    0.055583
   9 H :    0.054308
  10 H :    0.046478
  11 N :    0.128925
  12 H :    0.110323
  13 H :    0.108688
  14 N :    0.293254
  15 O :   -0.024389
  16 O :   -0.050026

-------------------------------
LOEWDIN REDUCED ORBITAL CHARGES
-------------------------------
  0 C s       :     2.844103  s :     2.844103
      pz      :     0.883109  p :     2.937209
      px      :     1.077765
      py      :     0.976334
      dz2     :     0.011030  d :     0.145917
      dxz     :     0.014902
      dyz     :     0.028749
      dx2y2   :     0.047877
      dxy     :     0.043359
  1 C s       :     2.868100  s :     2.868100
      pz      :     0.964456  p :     3.047657
      px      :     1.029447
      py      :     1.053755
      dz2     :     0.006191  d :     0.084746
      dxz     :     0.004936
      dyz     :     0.011966
      dx2y2   :     0.027722
      dxy     :     0.033932
  2 C s       :     2.864697  s :     2.864697
      pz      :     0.920317  p :     3.025730
      px      :     1.046485
      py      :     1.058927
      dz2     :     0.006496  d :     0.089314
      dxz     :     0.008707
      dyz     :     0.010424
      dx2y2   :     0.030477
      dxy     :     0.033210
  3 C s       :     2.877245  s :     2.877245
      pz      :     0.862216  p :     2.971518
      px      :     1.052042
      py      :     1.057259
      dz2     :     0.006550  d :     0.086753
      dxz     :     0.012071
      dyz     :     0.005958
      dx2y2   :     0.031793
      dxy     :     0.030382
  4 C s       :     2.864445  s :     2.864445
      pz      :     0.923395  p :     3.028667
      px      :     1.045251
      py      :     1.060021
      dz2     :     0.006273  d :     0.089549
      dxz     :     0.005626
      dyz     :     0.013595
      dx2y2   :     0.032904
      dxy     :     0.031150
  5 C s       :     2.868034  s :     2.868034
      pz      :     0.965974  p :     3.049258
      px      :     1.016029
      py      :     1.067256
      dz2     :     0.006306  d :     0.084699
      dxz     :     0.007637
      dyz     :     0.009460
      dx2y2   :     0.029920
      dxy     :     0.031375
  6 H s       :     0.881983  s :     0.881983
      pz      :     0.015608  p :     0.069240
      px      :     0.042052
      py      :     0.011580
  7 H s       :     0.876482  s :     0.876482
      pz      :     0.013028  p :     0.067799
      px      :     0.026335
      py      :     0.028436
  8 H s       :     0.875701  s :     0.875701
      pz      :     0.012112  p :     0.068716
      px      :     0.013100
      py      :     0.043505
  9 H s       :     0.878189  s :     0.878189
      pz      :     0.013886  p :     0.067503
      px      :     0.041620
      py      :     0.011997
 10 H s       :     0.884223  s :     0.884223
      pz      :     0.015018  p :     0.069299
      px      :     0.027269
      py      :     0.027012
 11 N s       :     3.027489  s :     3.027489
      pz      :     1.464834  p :     3.801360
      px      :     1.181750
      py      :     1.154776
      dz2     :     0.002535  d :     0.042226
      dxz     :     0.001299
      dyz     :     0.005622
      dx2y2   :     0.015080
      dxy     :     0.017690
 12 H s       :     0.769676  s :     0.769676
      pz      :     0.035932  p :     0.120000
      px      :     0.065441
      py      :     0.018627
 13 H s       :     0.771040  s :     0.771040
      pz      :     0.034774  p :     0.120272
      px      :     0.040194
      py      :     0.045304
 14 N s       :     3.323582  s :     3.323582
      pz      :     1.058862  p :     3.258481
      px      :     1.078840
      py      :     1.120779
      dz2     :     0.023114  d :     0.124683
      dxz     :     0.018675
      dyz     :     0.028975
      dx2y2   :     0.029796
      dxy     :     0.024123
 15 O s       :     3.724971  s :     3.724971
      pz      :     1.514913  p :     4.266321
      px      :     1.535040
      py      :     1.216368
      dz2     :     0.004205  d :     0.033097
      dxz     :     0.001046
      dyz     :     0.009700
      dx2y2   :     0.012281
      dxy     :     0.005866
 16 O s       :     3.738978  s :     3.738978
      pz      :     1.330041  p :     4.280368
      px      :     1.388467
      py      :     1.561860
      dz2     :     0.004678  d :     0.030680
      dxz     :     0.009704
      dyz     :     0.007731
      dx2y2   :     0.003071
      dxy     :     0.005495


                      *****************************
                      * MAYER POPULATION ANALYSIS *
                      *****************************

  NA   - Mulliken gross atomic population
  ZA   - Total nuclear charge
  QA   - Mulliken gross atomic charge
  VA   - Mayer's total valence
  BVA  - Mayer's bonded valence
  FA   - Mayer's free valence

  ATOM       NA         ZA         QA         VA         BVA        FA
  0 C      5.9513     6.0000     0.0487     4.0298     4.0298    -0.0000
  1 C      5.9670     6.0000     0.0330     3.8012     3.8012    -0.0000
  2 C      5.9714     6.0000     0.0286     3.8835     3.8835    -0.0000
  3 C      5.9287     6.0000     0.0713     3.8090     3.8090    -0.0000
  4 C      5.9726     6.0000     0.0274     3.8827     3.8827    -0.0000
  5 C      5.9667     6.0000     0.0333     3.7994     3.7994    -0.0000
  6 H      0.9774     1.0000     0.0226     0.9915     0.9915    -0.0000
  7 H      0.9543     1.0000     0.0457     0.9821     0.9821    -0.0000
  8 H      0.9482     1.0000     0.0518     0.9810     0.9810    -0.0000
  9 H      0.9577     1.0000     0.0423     0.9821     0.9821    -0.0000
 10 H      0.9825     1.0000     0.0175     0.9915     0.9915    -0.0000
 11 N      6.9691     7.0000     0.0309     3.4900     3.4900    -0.0000
 12 H      0.8348     1.0000     0.1652     0.9851     0.9851    -0.0000
 13 H      0.8372     1.0000     0.1628     0.9860     0.9860    -0.0000
 14 N      6.6503     7.0000     0.3497     3.5645     3.5645    -0.0000
 15 O      8.0543     8.0000    -0.0543     2.2923     2.2923    -0.0000
 16 O      8.0766     8.0000    -0.0766     2.2584     2.2584    -0.0000

  Mayer bond orders larger than 0.100000
B(  0-C ,  1-C ) :   1.1806 B(  0-C ,  5-C ) :   1.1799 B(  0-C , 11-N ) :   1.3997 
B(  1-C ,  2-C ) :   1.4849 B(  1-C ,  6-H ) :   0.9881 B(  2-C ,  3-C ) :   1.2874 
B(  2-C ,  7-H ) :   0.9808 B(  3-C ,  4-C ) :   1.2921 B(  3-C ,  8-H ) :   0.9860 
B(  4-C ,  5-C ) :   1.4809 B(  4-C ,  9-H ) :   0.9810 B(  5-C , 10-H ) :   0.9877 
B( 11-N , 12-H ) :   0.9303 B( 11-N , 13-H ) :   0.9311 B( 14-N , 15-O ) :   1.6240 
B( 14-N , 16-O ) :   1.5797 B( 15-O , 16-O ) :   0.3779 

-------
TIMINGS
-------

Total SCF time: 0 days 0 hours 8 min 53 sec 

Total time                  ....     533.837 sec
Sum of individual times     ....     527.181 sec  ( 98.8%)

Fock matrix formation       ....     517.765 sec  ( 97.0%)
  Split-RI-J                ....      65.791 sec  ( 12.7% of F)
  Chain of spheres X        ....     382.918 sec  ( 74.0% of F)
  XC integration            ....      68.455 sec  ( 13.2% of F)
    Basis function eval.    ....      23.044 sec  ( 33.7% of XC)
    Density eval.           ....      17.779 sec  ( 26.0% of XC)
    XC-Functional eval.     ....       4.909 sec  (  7.2% of XC)
    XC-Potential eval.      ....      16.574 sec  ( 24.2% of XC)
Diagonalization             ....       0.323 sec  (  0.1%)
Density matrix formation    ....       0.045 sec  (  0.0%)
Population analysis         ....       0.088 sec  (  0.0%)
Initial guess               ....       1.635 sec  (  0.3%)
Orbital Transformation      ....       0.322 sec  (  0.1%)
Orbital Orthonormalization  ....       0.000 sec  (  0.0%)
DIIS solution               ....       0.994 sec  (  0.2%)
SOSCF solution              ....       0.000 sec  (  0.0%)
Grid generation             ....       6.009 sec  (  1.1%)

Maximum memory used throughout the entire SCF-calculation: 68.5 MB


-------------------------------------------------------------------------------
                          DFT DISPERSION CORRECTION                            
                                                                               
                                 DFTD4 V2.5                                    
-------------------------------------------------------------------------------
The B3LYP functional is recognized
Active option DFTDOPT                   ...         5   

Starting D4
-------------------------   ----------------
Dispersion correction           -0.020344057
-------------------------   ----------------


-------------------------   --------------------
FINAL SINGLE POINT ENERGY      -491.714590008401
-------------------------   --------------------

------------------------------------------------------------------------------
                         ORCA SCF GRADIENT CALCULATION
------------------------------------------------------------------------------

 ... reading COSX grid (gridx3)
Gradient of the Kohn-Sham DFT energy:
Kohn-Sham wavefunction type      ... RKS
Hartree-Fock exchange scaling    ...    0.200
Number of operators              ...    1
Number of atoms                  ...   17
Basis set dimensions             ...  175
Integral neglect threshold       ... 2.5e-11
Integral primitive cutoff        ... 2.5e-12
SHARK Integral package           ... ON

Nuc. rep. gradient       (SHARK) ... done (  0.0 sec)
HCore & Overlap gradient (SHARK) ... done (  0.6 sec)
RI-J gradient            (SHARK) ... done (  4.1 sec)
COSX-gradient                    ... done ( 34.5 sec)
Exchange-correlation gradient    ... done
Dispersion correction            ... Starting D4


------------------- 
Dispersion Gradient 
------------------- 
   1  :   -0.000086658    0.000302752    0.000019895
   2  :   -0.000368842   -0.000041293    0.000085496
   3  :   -0.000252701   -0.000446710    0.000059105
   4  :    0.000124955   -0.000440624   -0.000028466
   5  :    0.000446937   -0.000236204   -0.000103677
   6  :    0.000331216    0.000166150   -0.000077312
   7  :   -0.000196411    0.000006472    0.000045575
   8  :   -0.000113922   -0.000134767    0.000026715
   9  :    0.000047453   -0.000164521   -0.000010645
  10  :    0.000168647   -0.000051194   -0.000039093
  11  :    0.000164462    0.000116117   -0.000038501
  12  :   -0.000151622    0.000527863    0.000034185
  13  :   -0.000181537    0.000160775    0.000042314
  14  :    0.000070133    0.000236215   -0.000016056
  15  :    0.000000091    0.000002905   -0.000000793
  16  :    0.000022973    0.000046994   -0.000036211
  17  :   -0.000025175   -0.000050931    0.000037469

  |G| =    0.001239294

done

------------------
CARTESIAN GRADIENT
------------------

   1   C   :    0.001473703   -0.006654414   -0.000394519
   2   C   :    0.002137736    0.004386491   -0.000519722
   3   C   :    0.002599201   -0.002438311   -0.000617154
   4   C   :    0.000532637    0.000298236   -0.000116883
   5   C   :   -0.001549109   -0.003821724    0.000376284
   6   C   :   -0.003282861    0.002154632    0.000850608
   7   H   :   -0.000803317    0.000497744    0.000190519
[...]
     32       0.071477   0.000004  -0.066988  -0.054755  -0.052381  -0.015802
     33      -0.059363  -0.050956   0.053256  -0.028721  -0.016636   0.067034
     34       0.103077  -0.022012   0.032083   0.048676  -0.010388  -0.112452
     35       0.006229   0.015924  -0.017499   0.003107   0.005504  -0.007357
     36      -0.077867  -0.053314   0.054686  -0.041233  -0.015632   0.054647
     37       0.339918   0.308866  -0.212435   0.372635   0.097276   0.674524
     38      -0.011787  -0.014970   0.005399  -0.024752  -0.005032  -0.079983
     39      -0.275793   0.208152  -0.157359  -0.306697   0.070745  -0.612507
     40       0.238458  -0.158312   0.144560   0.209554  -0.055030   0.259761
     41       0.051801  -0.041531   0.028972   0.063061  -0.014000   0.140734
     42       0.037772   0.001843  -0.000023   0.003763   0.000003  -0.000425
     43      -0.054346  -0.002641   0.000093  -0.005463   0.000086   0.000527
     44      -0.051698  -0.002515   0.000064  -0.005178   0.000045   0.000532
     45       0.086821   0.003996  -0.000078   0.005325  -0.000064  -0.000403
     46       0.102921   0.004834  -0.000110   0.007725  -0.000092  -0.000671
     47       0.011513   0.000585  -0.000020   0.001515  -0.000019  -0.000165
     48      -0.119862  -0.005606   0.000102  -0.008627   0.000051   0.000773
     49      -0.055337  -0.002520   0.000035  -0.002951   0.000013   0.000215
     50       0.033745   0.001617  -0.000036   0.003018  -0.000022  -0.000301
                 42         43         44         45         46         47    
      0      -0.127121  -0.000003  -0.002020  -0.002352  -0.000917  -0.001494
      1       0.213551  -0.000044   0.001512  -0.002272   0.001520  -0.000955
      2       0.013972  -0.000002   0.000399   0.000855   0.000102   0.000496
      3       0.080678  -0.000005  -0.033456   0.069136  -0.026839   0.021199
      4      -0.238876   0.000133  -0.000931   0.000596   0.001130  -0.002701
      5       0.001082  -0.000012   0.009123  -0.018726   0.007140  -0.005467
      6      -0.154528   0.000124   0.009366  -0.013821  -0.014153   0.025805
      7       0.160626  -0.000090   0.015761  -0.021485  -0.033995   0.052876
      8       0.026430  -0.000025  -0.004044   0.005798   0.007087  -0.012046
      9       0.045698  -0.000006   0.007081  -0.002038  -0.028748  -0.003466
     10      -0.078121   0.000038  -0.011744   0.004141   0.048231  -0.002883
     11      -0.004912  -0.000001  -0.000800   0.000158   0.003187   0.001214
     12      -0.067112  -0.000100  -0.028901  -0.009927   0.037922   0.056766
     13       0.212499  -0.000113  -0.002335  -0.001441  -0.003000  -0.001156
     14      -0.002194   0.000042   0.008016   0.002814  -0.009940  -0.015200
     15       0.169208  -0.000054   0.031887   0.017637   0.011341   0.007130
     16      -0.181757   0.000020   0.059810   0.034464   0.024649   0.019596
     17      -0.028362   0.000016  -0.014345  -0.008065  -0.005425  -0.003803
     18       0.076698  -0.000010   0.382537  -0.789954   0.294176  -0.225734
     19       0.301884  -0.000059   0.003928  -0.006657   0.001414   0.000457
     20      -0.049745  -0.000003  -0.103651   0.213904  -0.079560   0.060903
     21       0.244509  -0.000090  -0.101894   0.143926   0.189409  -0.302688
     22      -0.051138   0.000025  -0.194523   0.272584   0.370350  -0.584694
     23      -0.061276   0.000013   0.046204  -0.065056  -0.086717   0.137894
     24       0.055067  -0.000362  -0.083716   0.027573   0.334133   0.000100
     25      -0.089253  -0.000170   0.140530  -0.047113  -0.561494   0.008589
     26      -0.006231   0.000066   0.009285  -0.002975  -0.036990  -0.000855
     27      -0.067554  -0.000133   0.348814   0.121974  -0.430545  -0.636272
     28      -0.241933  -0.000164   0.003324   0.001869   0.000843  -0.001921
     29       0.041327  -0.000069  -0.094366  -0.033066   0.116013   0.171761
     30      -0.296105  -0.000447  -0.360007  -0.204874  -0.136495  -0.099868
     31       0.070521   0.000243  -0.686611  -0.392195  -0.263248  -0.195764
     32       0.073198   0.000018   0.163058   0.092933   0.062100   0.045735
     33       0.067852  -0.000011   0.000188   0.000349   0.000120   0.000173
     34      -0.113540  -0.000018  -0.000040   0.000267  -0.000191   0.000114
     35      -0.007465   0.000006  -0.000047  -0.000121  -0.000014  -0.000058
     36       0.060778   0.000034  -0.001143  -0.001348   0.001488  -0.000370
     37       0.407649   0.000305  -0.003691   0.002627  -0.002083   0.000370
     38      -0.055942  -0.000073   0.000656   0.000120  -0.000205   0.000068
     39      -0.383131  -0.000455   0.003949  -0.000812   0.001099   0.000077
     40       0.132110   0.000296  -0.002030  -0.001671  -0.002297  -0.000481
     41       0.090745   0.000026  -0.000869   0.000383  -0.000073   0.000027
     42      -0.009360   0.661651  -0.000033   0.000008  -0.000077  -0.000005
     43       0.013756   0.511088   0.000050  -0.000011   0.000114   0.000008
     44       0.012982  -0.068598   0.000047  -0.000011   0.000107   0.000007
     45      -0.009573  -0.242084  -0.000010   0.000002  -0.000023  -0.000002
     46      -0.016494  -0.301834  -0.000041   0.000009  -0.000093  -0.000007
     47      -0.004213  -0.040647  -0.000018   0.000004  -0.000041  -0.000003
     48       0.017801  -0.337053   0.000040  -0.000009   0.000091   0.000006
     49       0.004465  -0.145592  -0.000003   0.000000  -0.000006  -0.000000
     50      -0.007155   0.100687  -0.000023   0.000005  -0.000053  -0.000004
                 48         49         50    
      0      -0.000455   0.001293   0.000557
      1       0.000760  -0.002156   0.000319
      2       0.000051  -0.000150  -0.000181
      3      -0.011913  -0.000034  -0.000362
      4       0.002098  -0.000944  -0.000410
      5       0.003017   0.000100   0.000135
      6      -0.020510   0.000073   0.000071
      7      -0.035938   0.000282   0.000009
      8       0.008992  -0.000046  -0.000020
      9       0.033841   0.000113  -0.000069
     10      -0.056879  -0.000174  -0.000045
     11      -0.003741  -0.000014   0.000023
     12       0.041046  -0.000278   0.000040
     13       0.001851   0.000050   0.000065
     14      -0.011251   0.000071  -0.000017
     15       0.003696   0.000835  -0.000512
     16       0.011733  -0.000409  -0.000145
     17      -0.002123  -0.000187   0.000154
     18       0.120664   0.000146   0.001700
     19      -0.000761   0.000840  -0.000994
     20      -0.032508  -0.000129  -0.000358
     21       0.208961  -0.000642  -0.000152
     22       0.397352  -0.000671  -0.000024
     23      -0.094591   0.000239   0.000043
     24      -0.373880  -0.000584   0.000052
     25       0.628420   0.001004   0.000038
     26       0.041361   0.000064  -0.000019
     27      -0.446015   0.000909  -0.000100
     28      -0.004218   0.000275  -0.000114
     29       0.120684  -0.000267   0.000037
     30      -0.055215  -0.000757  -0.000037
     31      -0.109327   0.000316   0.002090
     32       0.025388   0.000176  -0.000189
     33       0.000012  -0.028711   0.070817
     34      -0.000015   0.046815   0.044344
     35      -0.000002   0.003209  -0.023458
     36       0.000137   0.686450  -0.675009
     37      -0.000742  -0.000451   0.008751
     38       0.000033  -0.185499   0.181540
     39       0.000571  -0.310376  -0.307234
     40      -0.000461  -0.611888  -0.623472
     41      -0.000111   0.143511   0.143800
     42      -0.000049   0.000461   0.000016
     43       0.000074  -0.000679  -0.000014
     44       0.000069  -0.000640  -0.000016
     45      -0.000015   0.000124   0.000001
     46      -0.000060   0.000546   0.000011
     47      -0.000026   0.000245   0.000006
     48       0.000059  -0.000530  -0.000015
     49      -0.000004   0.000047   0.000001
     50      -0.000034   0.000316   0.000008


-----------
IR SPECTRUM
-----------

 Mode   freq       eps      Int      T**2         TX        TY        TZ
       cm**-1   L/(mol*cm) km/mol    a.u.
----------------------------------------------------------------------------
  7:      3.28   0.000000    0.00  0.000000  ( 0.000000  0.000000  0.000000)
  8:      4.41   0.000000    0.00  0.000000  ( 0.000000  0.000000  0.000000)
  9:     11.51   0.000051    0.26  0.001387  ( 0.034848  0.007937  0.010455)
 10:     19.32   0.000003    0.01  0.000043  ( 0.000096  0.006515 -0.000941)
 11:     23.65   0.000396    2.00  0.005227  (-0.027490  0.031507 -0.058978)
 12:    201.94   0.001396    7.06  0.002158  (-0.011346 -0.004121 -0.044857)
 13:    388.10   0.000453    2.29  0.000364  (-0.015193 -0.010094  0.005594)
 14:    394.39   0.000003    0.02  0.000002  ( 0.000129  0.000068  0.001570)
 15:    457.16   0.033879  171.21  0.023126  (-0.034933 -0.012914 -0.147443)
 16:    505.49   0.002021   10.21  0.001248  ( 0.008131  0.003159  0.034229)
 17:    515.61   0.000084    0.42  0.000051  (-0.002875 -0.000865 -0.006456)
 18:    531.64   0.082083  414.82  0.048181  ( 0.206363  0.071508 -0.021962)
 19:    611.43   0.000003    0.02  0.000002  (-0.000082  0.001128 -0.000569)
 20:    634.00   1.180170  5964.10  0.580897  (-0.720264 -0.239674  0.068362)
 21:    671.19   0.007318   36.98  0.003402  (-0.016536 -0.005843 -0.055631)
 22:    800.40   0.006953   35.14  0.002711  ( 0.013048  0.004659  0.050189)
 23:    819.12   0.000016    0.08  0.000006  (-0.001015 -0.000302 -0.002242)
 24:    836.01   0.003419   17.28  0.001276  ( 0.031135  0.016979 -0.004319)
 25:    928.70   0.000993    5.02  0.000334  ( 0.004503  0.001600  0.017632)
 26:    995.50   0.011400   57.61  0.003574  (-0.058726 -0.008539  0.007213)
 27:   1005.01   0.000001    0.00  0.000000  (-0.000371 -0.000053  0.000135)
 28:   1022.61   0.000007    0.04  0.000002  ( 0.001156  0.000815 -0.000447)
 29:   1027.98   0.000007    0.03  0.000002  ( 0.000248  0.000059  0.001422)
 30:   1029.94   0.002442   12.34  0.000740  (-0.023365 -0.013613  0.002956)
 31:   1122.46   0.001423    7.19  0.000396  ( 0.015576  0.010926 -0.005811)
 32:   1173.52   0.000029    0.15  0.000008  (-0.002754 -0.000277  0.000082)
 33:   1191.97   0.040499  204.67  0.010603  (-0.100390 -0.019427  0.012138)
 34:   1350.46   0.000002    0.01  0.000000  (-0.000499  0.000287 -0.000198)
 35:   1366.29   1.390569  7027.37  0.317610  (-0.537729 -0.156391  0.063237)
 36:   1385.60   0.250348  1265.16  0.056383  (-0.224882 -0.071591  0.026185)
 37:   1397.94   0.000090    0.45  0.000020  (-0.004381 -0.000916  0.000233)
 38:   1500.53   0.001510    7.63  0.000314  ( 0.014135  0.009548 -0.004807)
 39:   1523.59   0.020718  104.70  0.004243  ( 0.055898 -0.032794 -0.006588)
 40:   1565.43   0.000295    1.49  0.000059  ( 0.006117  0.004110 -0.002115)
 41:   1631.11   0.025711  129.93  0.004919  (-0.042518  0.055574  0.004772)
 42:   1666.70   0.115775  585.08  0.021677  (-0.146205 -0.001402  0.017300)
 43:   2025.68   0.064336  325.13  0.009911  ( 0.078192  0.061036 -0.008473)
 44:   3189.63   0.000870    4.40  0.000085  (-0.008247  0.004040  0.000907)
 45:   3190.86   0.000053    0.27  0.000005  ( 0.002111 -0.000807 -0.000244)
 46:   3203.33   0.001556    7.86  0.000152  (-0.012120 -0.001759  0.001270)
 47:   3209.50   0.000001    0.01  0.000000  ( 0.000283 -0.000176 -0.000160)
 48:   3218.36   0.000557    2.82  0.000054  (-0.007029 -0.002026  0.000733)
 49:   3566.71   0.164286  830.24  0.014374  ( 0.117338 -0.020403 -0.013765)
 50:   3688.71   0.013105   66.23  0.001109  (-0.026771 -0.017436  0.009378)

* The epsilon (eps) is given for a Dirac delta lineshape.
** The dipole moment derivative (T) already includes vibrational overlap.

The first frequency considered to be a vibration is 7
The total number of vibrations considered is 44


--------------------------
THERMOCHEMISTRY AT 298.15K
--------------------------

Temperature         ... 298.15 K
Pressure            ... 1.00 atm
Total Mass          ... 139.13 AMU

Throughout the following assumptions are being made:
  (1) The electronic state is orbitally nondegenerate
  (2) There are no thermally accessible electronically excited states
  (3) Hindered rotations indicated by low frequency modes are not
      treated as such but are treated as vibrations and this may
      cause some error
  (4) All equations used are the standard statistical mechanics
      equations for an ideal gas
  (5) All vibrations are strictly harmonic

freq.       3.28  E(vib)   ...       0.59 
freq.       4.41  E(vib)   ...       0.59 
freq.      11.51  E(vib)   ...       0.58 
freq.      19.32  E(vib)   ...       0.57 
freq.      23.65  E(vib)   ...       0.56 
freq.     201.94  E(vib)   ...       0.35 
freq.     388.10  E(vib)   ...       0.20 
freq.     394.39  E(vib)   ...       0.20 
freq.     457.16  E(vib)   ...       0.16 
freq.     505.49  E(vib)   ...       0.14 
freq.     515.61  E(vib)   ...       0.13 
freq.     531.64  E(vib)   ...       0.13 
freq.     611.43  E(vib)   ...       0.10 
freq.     634.00  E(vib)   ...       0.09 
freq.     671.19  E(vib)   ...       0.08 
freq.     800.40  E(vib)   ...       0.05 
freq.     819.12  E(vib)   ...       0.05 
freq.     836.01  E(vib)   ...       0.04 
freq.     928.70  E(vib)   ...       0.03 
freq.     995.50  E(vib)   ...       0.02 
freq.    1005.01  E(vib)   ...       0.02 
freq.    1022.61  E(vib)   ...       0.02 
freq.    1027.98  E(vib)   ...       0.02 
freq.    1029.94  E(vib)   ...       0.02 
freq.    1122.46  E(vib)   ...       0.01 
freq.    1173.52  E(vib)   ...       0.01 
freq.    1191.97  E(vib)   ...       0.01 
freq.    1350.46  E(vib)   ...       0.01 
freq.    1366.29  E(vib)   ...       0.01 
freq.    1385.60  E(vib)   ...       0.00 
freq.    1397.94  E(vib)   ...       0.00 
freq.    1500.53  E(vib)   ...       0.00 
freq.    1523.59  E(vib)   ...       0.00 
freq.    1565.43  E(vib)   ...       0.00 
freq.    1631.11  E(vib)   ...       0.00 
freq.    1666.70  E(vib)   ...       0.00 
freq.    2025.68  E(vib)   ...       0.00 
freq.    3189.63  E(vib)   ...       0.00 
freq.    3190.86  E(vib)   ...       0.00 
freq.    3203.33  E(vib)   ...       0.00 
freq.    3209.50  E(vib)   ...       0.00 
freq.    3218.36  E(vib)   ...       0.00 
freq.    3566.71  E(vib)   ...       0.00 
freq.    3688.71  E(vib)   ...       0.00 

------------
INNER ENERGY
------------

The inner energy is: U= E(el) + E(ZPE) + E(vib) + E(rot) + E(trans)
    E(el)   - is the total energy from the electronic structure calculation
              = E(kin-el) + E(nuc-el) + E(el-el) + E(nuc-nuc)
    E(ZPE)  - the the zero temperature vibrational energy from the frequency calculation
    E(vib)  - the the finite temperature correction to E(ZPE) due to population
              of excited vibrational states
    E(rot)  - is the rotational thermal energy
    E(trans)- is the translational thermal energy

Summary of contributions to the inner energy U:
Electronic energy                ...   -491.77332643 Eh
Zero point energy                ...      0.12668156 Eh      79.49 kcal/mol
Thermal vibrational correction   ...      0.00764081 Eh       4.79 kcal/mol
Thermal rotational correction    ...      0.00141627 Eh       0.89 kcal/mol
Thermal translational correction ...      0.00141627 Eh       0.89 kcal/mol
-----------------------------------------------------------------------
Total thermal energy                   -491.63617152 Eh


Summary of corrections to the electronic energy:
(perhaps to be used in another calculation)
Total thermal correction                  0.01047335 Eh       6.57 kcal/mol
Non-thermal (ZPE) correction              0.12668156 Eh      79.49 kcal/mol
-----------------------------------------------------------------------
Total correction                          0.13715491 Eh      86.07 kcal/mol


--------
ENTHALPY
--------

The enthalpy is H = U + kB*T
                kB is Boltzmann's constant
Total free energy                 ...   -491.63617152 Eh 
Thermal Enthalpy correction       ...      0.00094421 Eh       0.59 kcal/mol
-----------------------------------------------------------------------
Total Enthalpy                    ...   -491.63522731 Eh


Note: Only C1 symmetry has been detected, increase convergence thresholds 
      if your molecule has a higher symmetry. Symmetry factor of 1.0 is   
      used for the rotational entropy correction. 
 

Note: Rotational entropy computed according to Herzberg 
Infrared and Raman Spectra, Chapter V,1, Van Nostrand Reinhold, 1945 
Point Group:  C1, Symmetry Number:   1  
Rotational constants in cm-1:     0.086693     0.003093     0.002990 

Vibrational entropy computed according to the QRRHO of S. Grimme
Chem.Eur.J. 2012 18 9955


-------
ENTROPY
-------

The entropy contributions are T*S = T*(S(el)+S(vib)+S(rot)+S(trans))
     S(el)   - electronic entropy
     S(vib)  - vibrational entropy
     S(rot)  - rotational entropy
     S(trans)- translational entropy
The entropies will be listed as multiplied by the temperature to get
units of energy

Electronic entropy                ...      0.00000000 Eh      0.00 kcal/mol
Vibrational entropy               ...      0.01678120 Eh     10.53 kcal/mol
Rotational entropy                ...      0.01613741 Eh     10.13 kcal/mol
Translational entropy             ...      0.01933899 Eh     12.14 kcal/mol
-----------------------------------------------------------------------
Final entropy term                ...      0.05225760 Eh     32.79 kcal/mol

In case the symmetry of your molecule has not been determined correctly
or in case you have a reason to use a different symmetry number we print 
out the resulting rotational entropy values for sn=1,12 :
 --------------------------------------------------------
|  sn= 1 | S(rot)=       0.01613741 Eh     10.13 kcal/mol|
|  sn= 2 | S(rot)=       0.01548295 Eh      9.72 kcal/mol|
|  sn= 3 | S(rot)=       0.01510012 Eh      9.48 kcal/mol|
|  sn= 4 | S(rot)=       0.01482850 Eh      9.31 kcal/mol|
|  sn= 5 | S(rot)=       0.01461781 Eh      9.17 kcal/mol|
|  sn= 6 | S(rot)=       0.01444566 Eh      9.06 kcal/mol|
|  sn= 7 | S(rot)=       0.01430012 Eh      8.97 kcal/mol|
|  sn= 8 | S(rot)=       0.01417404 Eh      8.89 kcal/mol|
|  sn= 9 | S(rot)=       0.01406283 Eh      8.82 kcal/mol|
|  sn=10 | S(rot)=       0.01396335 Eh      8.76 kcal/mol|
|  sn=11 | S(rot)=       0.01387336 Eh      8.71 kcal/mol|
|  sn=12 | S(rot)=       0.01379121 Eh      8.65 kcal/mol|
 --------------------------------------------------------


-------------------
GIBBS FREE ENERGY
-------------------

The Gibbs free energy is G = H - T*S

Total enthalpy                    ...   -491.63522731 Eh 
Total entropy correction          ...     -0.05225760 Eh    -32.79 kcal/mol
-----------------------------------------------------------------------
Final Gibbs free energy         ...   -491.68748491 Eh

For completeness - the Gibbs free energy minus the electronic energy
G-E(el)                           ...      0.08584152 Eh     53.87 kcal/mol


Timings for individual modules:

Sum of individual times         ...     9848.666 sec (= 164.144 min)
GTO integral calculation        ...       37.155 sec (=   0.619 min)   0.4 %
SCF iterations                  ...     7490.622 sec (= 124.844 min)  76.1 %
SCF Gradient evaluation         ...     1601.022 sec (=  26.684 min)  16.3 %
Geometry relaxation             ...       11.388 sec (=   0.190 min)   0.1 %
Analytical frequency calculation...      708.479 sec (=  11.808 min)   7.2 %
                             ****ORCA TERMINATED NORMALLY****
TOTAL RUN TIME: 0 days 2 hours 44 minutes 41 seconds 204 msec
