
                                 *****************
                                 * O   R   C   A *
                                 *****************

                                            #,                                       
                                            ###                                      
                                            ####                                     
                                            #####                                    
                                            ######                                   
                                           ########,                                 
                                     ,,################,,,,,                         
                               ,,#################################,,                 
                          ,,##########################################,,             
                       ,#########################################, ''#####,          
                    ,#############################################,,   '####,        
                  ,##################################################,,,,####,       
                ,###########''''           ''''###############################       
              ,#####''   ,,,,##########,,,,          '''####'''          '####       
            ,##' ,,,,###########################,,,                        '##       
           ' ,,###''''                  '''############,,,                           
         ,,##''                                '''############,,,,        ,,,,,,###''
      ,#''                                            '''#######################'''  
     '                                                          ''''####''''         
             ,#######,   #######,   ,#######,      ##                                
            ,#'     '#,  ##    ##  ,#'     '#,    #''#        ######   ,####,        
            ##       ##  ##   ,#'  ##            #'  '#       #        #'  '#        
            ##       ##  #######   ##           ,######,      #####,   #    #        
            '#,     ,#'  ##    ##  '#,     ,#' ,#      #,         ##   #,  ,#        
             '#######'   ##     ##  '#######'  #'      '#     #####' # '####'        



                  #######################################################
                  #                        -***-                        #
                  #          Department of theory and spectroscopy      #
                  #    Directorship and core code : Frank Neese         #
                  #        Max Planck Institute fuer Kohlenforschung    #
                  #                Kaiser Wilhelm Platz 1               #
                  #                 D-45470 Muelheim/Ruhr               #
                  #                      Germany                        #
                  #                                                     #
                  #                  All rights reserved                #
                  #                        -***-                        #
                  #######################################################



                         Program Version 5.0.4 -  RELEASE  -

 With contributions from (in alphabetic order):
   Daniel Aravena         : Magnetic Suceptibility
   Michael Atanasov       : Ab Initio Ligand Field Theory (pilot matlab implementation)
   Alexander A. Auer      : GIAO ZORA, VPT2 properties, NMR spectrum
   Ute Becker             : Parallelization
   Giovanni Bistoni       : ED, misc. LED, open-shell LED, HFLD
   Martin Brehm           : Molecular dynamics
   Dmytro Bykov           : SCF Hessian
   Vijay G. Chilkuri      : MRCI spin determinant printing, contributions to CSF-ICE
   Dipayan Datta          : RHF DLPNO-CCSD density
   Achintya Kumar Dutta   : EOM-CC, STEOM-CC
   Dmitry Ganyushin       : Spin-Orbit,Spin-Spin,Magnetic field MRCI
   Miquel Garcia          : C-PCM and meta-GGA Hessian, CC/C-PCM, Gaussian charge scheme
   Yang Guo               : DLPNO-NEVPT2, F12-NEVPT2, CIM, IAO-localization
   Andreas Hansen         : Spin unrestricted coupled pair/coupled cluster methods
   Benjamin Helmich-Paris : MC-RPA, TRAH-SCF, COSX integrals
   Lee Huntington         : MR-EOM, pCC
   Robert Izsak           : Overlap fitted RIJCOSX, COSX-SCS-MP3, EOM
   Marcus Kettner         : VPT2
   Christian Kollmar      : KDIIS, OOCD, Brueckner-CCSD(T), CCSD density, CASPT2, CASPT2-K
   Simone Kossmann        : Meta GGA functionals, TD-DFT gradient, OOMP2, MP2 Hessian
   Martin Krupicka        : Initial AUTO-CI
   Lucas Lang             : DCDCAS
   Marvin Lechner         : AUTO-CI (C++ implementation), FIC-MRCC
   Dagmar Lenk            : GEPOL surface, SMD
   Dimitrios Liakos       : Extrapolation schemes; Compound Job, initial MDCI parallelization
   Dimitrios Manganas     : Further ROCIS development; embedding schemes
   Dimitrios Pantazis     : SARC Basis sets
   Anastasios Papadopoulos: AUTO-CI, single reference methods and gradients
   Taras Petrenko         : DFT Hessian,TD-DFT gradient, ASA, ECA, R-Raman, ABS, FL, XAS/XES, NRVS
   Peter Pinski           : DLPNO-MP2, DLPNO-MP2 Gradient
   Christoph Reimann      : Effective Core Potentials
   Marius Retegan         : Local ZFS, SOC
   Christoph Riplinger    : Optimizer, TS searches, QM/MM, DLPNO-CCSD(T), (RO)-DLPNO pert. Triples
   Tobias Risthaus        : Range-separated hybrids, TD-DFT gradient, RPA, STAB
   Michael Roemelt        : Original ROCIS implementation
   Masaaki Saitow         : Open-shell DLPNO-CCSD energy and density
   Barbara Sandhoefer     : DKH picture change effects
   Avijit Sen             : IP-ROCIS
   Kantharuban Sivalingam : CASSCF convergence, NEVPT2, FIC-MRCI
   Bernardo de Souza      : ESD, SOC TD-DFT
   Georgi Stoychev        : AutoAux, RI-MP2 NMR, DLPNO-MP2 response
   Willem Van den Heuvel  : Paramagnetic NMR
   Boris Wezisla          : Elementary symmetry handling
   Frank Wennmohs         : Technical directorship


 We gratefully acknowledge several colleagues who have allowed us to
 interface, adapt or use parts of their codes:
   Stefan Grimme, W. Hujo, H. Kruse, P. Pracht,  : VdW corrections, initial TS optimization,
                  C. Bannwarth, S. Ehlert          DFT functionals, gCP, sTDA/sTD-DF
   Ed Valeev, F. Pavosevic, A. Kumar             : LibInt (2-el integral package), F12 methods
   Garnet Chan, S. Sharma, J. Yang, R. Olivares  : DMRG
   Ulf Ekstrom                                   : XCFun DFT Library
   Mihaly Kallay                                 : mrcc  (arbitrary order and MRCC methods)
   Jiri Pittner, Ondrej Demel                    : Mk-CCSD
   Frank Weinhold                                : gennbo (NPA and NBO analysis)
   Christopher J. Cramer and Donald G. Truhlar   : smd solvation model
   Lars Goerigk                                  : TD-DFT with DH, B97 family of functionals
   V. Asgeirsson, H. Jonsson                     : NEB implementation
   FAccTs GmbH                                   : IRC, NEB, NEB-TS, DLPNO-Multilevel, CI-OPT
                                                   MM, QMMM, 2- and 3-layer-ONIOM, Crystal-QMMM,
                                                   LR-CPCM, SF, NACMEs, symmetry and pop. for TD-DFT,
                                                   nearIR, NL-DFT gradient (VV10), updates on ESD,
                                                   ML-optimized integration grids
   S Lehtola, MJT Oliveira, MAL Marques          : LibXC Library
   Liviu Ungur et al                             : ANISO software


 Your calculation uses the libint2 library for the computation of 2-el integrals
 For citations please refer to: http://libint.valeyev.net

 Your ORCA version has been built with support for libXC version: 5.1.0
 For citations please refer to: https://tddft.org/programs/libxc/

 This ORCA versions uses:
   CBLAS   interface :  Fast vector & matrix operations
   LAPACKE interface :  Fast linear algebra routines
   Shared memory     :  Shared parallel matrices


Your calculation utilizes the atom-pairwise dispersion correction
based on tight binding partial charges (D4)
Cite in your paper:
E.Caldeweyher, C.Bannwarth, S.Grimme, J.Chem.Phys., (2017), 147, 034112.
E.Caldeweyher, S.Ehlert, A.Hansen, H.Neugebauer, S.Grimme, J.Chem.Phys., (2018), in progress.
   

================================================================================

----- Orbital basis set information -----
Your calculation utilizes the basis: def2-SVP
   F. Weigend and R. Ahlrichs, Phys. Chem. Chem. Phys. 7, 3297 (2005).

----- AuxJ basis set information -----
Your calculation utilizes the auxiliary basis: def2/J
   F. Weigend, Phys. Chem. Chem. Phys. 8, 1057 (2006).

================================================================================
                                        WARNINGS
                       Please study these warnings very carefully!
================================================================================


WARNING: Geometry Optimization
  ===> : Switching off AutoStart
         For restart on a previous wavefunction, please use MOREAD

INFO   : the flag for use of the SHARK integral package has been found!

================================================================================
                                       INPUT FILE
================================================================================
NAME = p_p_opt_8.inp
|  1> !B3LYP/G DEF2-SVP OPT FREQ D4 SOSCF
|  2> 
|  3> %geom
|  4> convergence tight
|  5> maxIter 1000
|  6> end
|  7> 
|  8> * xyz 1 1
|  9>   C   -5.69833092361994      1.00686092459078      0.33485155073378
| 10>   C   -6.61680458273250      1.67081204129629     -0.51390840449094
| 11>   C   -7.18619273725617      1.02045560106836     -1.58091495155330
| 12>   C   -6.82470599943010     -0.31426466461225     -1.81176612108115
| 13>   C   -5.91745804808162     -1.00999324425869     -1.00318878997674
| 14>   C   -5.36566523100152     -0.34797487006664      0.06423725342932
| 15>   C   -5.07305743438627      1.70840368139421      1.47981034621772
| 16>   H   -5.06527828138158      1.07716392145458      2.37324524966903
| 17>   H   -5.55683733451661      2.65675107330755      1.70319573272173
| 18>   H   -4.01601912953277      1.91136256987490      1.25447618269080
| 19>   H   -6.87155972048808      2.70250277032083     -0.31175910599881
| 20>   H   -7.89767717421053      1.50485388900656     -2.23441149022560
| 21>   H   -5.67120614031689     -2.03725120520009     -1.23094987468862
| 22>   H   -4.66618171327849     -0.85818501679974      0.71352336890359
| 23>   N   -7.42608391142514     -1.01068678627015     -2.94360382798451
| 24>   O   -6.70542290043114     -1.75361261013017     -3.58398045937197
| 25>   O   -8.60498382670229     -0.79503698488568     -3.15976323113312
| 26>   H   -14.69588491120795     -8.94822109009061    -12.00406342786115
| 27> **                         ****END OF INPUT****
================================================================================

                       *****************************
                       * Geometry Optimization Run *
                       *****************************

Geometry optimization settings:
Update method            Update   .... BFGS
Choice of coordinates    CoordSys .... Z-matrix Internals
Initial Hessian          InHess   .... Almoef's Model

Convergence Tolerances:
Energy Change            TolE     ....  1.0000e-06 Eh
Max. Gradient            TolMAXG  ....  1.0000e-04 Eh/bohr
RMS Gradient             TolRMSG  ....  3.0000e-05 Eh/bohr
Max. Displacement        TolMAXD  ....  1.0000e-03 bohr
RMS Displacement         TolRMSD  ....  6.0000e-04 bohr
Strict Convergence                ....  False
------------------------------------------------------------------------------
                        ORCA OPTIMIZATION COORDINATE SETUP
------------------------------------------------------------------------------

The optimization will be done in new redundant internal coordinates
Making redundant internal coordinates   ...  (new redundants) done
Evaluating the initial hessian          ...  (Almloef) done
Evaluating the coordinates              ...  done
Calculating the B-matrix                .... done
Calculating the G-matrix                .... done
Diagonalizing the G-matrix              .... done
Small eigenvalue found = 9.731e-03
Small eigenvalue found = 1.705e-02
The first mode is                       ....   47
The number of degrees of freedom        ....   48

    -----------------------------------------------------------------
                    Redundant Internal Coordinates


    -----------------------------------------------------------------
         Definition                    Initial Value    Approx d2E/dq
    -----------------------------------------------------------------
      1. B(C   1,C   0)                  1.4159         0.568056   
      2. B(C   2,C   1)                  1.3732         0.664580   
      3. B(C   3,C   2)                  1.4019         0.597978   
      4. B(C   4,C   3)                  1.4003         0.601522   
      5. B(C   5,C   4)                  1.3719         0.667724   
      6. B(C   5,C   0)                  1.4211         0.557374   
      7. B(C   6,C   0)                  1.4812         0.446866   
      8. B(H   7,C   6)                  1.0940         0.354898   
      9. B(H   8,C   6)                  1.0878         0.363023   
     10. B(H   9,C   6)                  1.0997         0.347519   
     11. B(H  10,C   1)                  1.0817         0.371201   
     12. B(H  11,C   2)                  1.0807         0.372617   
     13. B(H  12,C   4)                  1.0806         0.372703   
     14. B(H  13,C   5)                  1.0822         0.370563   
     15. B(N  14,C   3)                  1.4587         0.434829   
     16. B(O  15,N  14)                  1.2171         0.945881   
     17. B(O  16,N  14)                  1.2178         0.943513   
     18. B(H  17,O  16)                 13.4831         0.000000   
     19. B(H  17,O  15)                 13.6568         0.000000   
     20. B(H  17,N  14)                 14.0693         0.000000   
     21. A(C   1,C   0,C   6)          121.0035         0.403132   
     22. A(C   5,C   0,C   6)          119.9947         0.401786   
     23. A(C   1,C   0,C   5)          118.9968         0.419243   
     24. A(C   2,C   1,H  10)          119.9505         0.358938   
     25. A(C   0,C   1,H  10)          119.2074         0.349518   
     26. A(C   0,C   1,C   2)          120.8417         0.432658   
     27. A(C   3,C   2,H  11)          119.7962         0.352790   
     28. A(C   1,C   2,H  11)          122.0436         0.359171   
     29. A(C   1,C   2,C   3)          118.1598         0.436674   
     30. A(C   2,C   3,C   4)          123.0234         0.428917   
     31. A(C   4,C   3,N  14)          118.5511         0.402666   
     32. A(C   2,C   3,N  14)          118.4251         0.402246   
     33. A(C   3,C   4,C   5)          118.0408         0.437512   
     34. A(C   5,C   4,H  12)          122.0764         0.359474   
     35. A(C   3,C   4,H  12)          119.8827         0.353157   
     36. A(C   0,C   5,C   4)          120.9351         0.431550   
     37. A(C   4,C   5,H  13)          119.9520         0.359121   
     38. A(C   0,C   5,H  13)          119.1129         0.348300   
     39. A(H   8,C   6,H   9)          107.9788         0.289588   
     40. A(H   7,C   6,H   9)          105.4864         0.288563   
     41. A(C   0,C   6,H   9)          109.5594         0.332092   
     42. A(H   7,C   6,H   8)          109.7855         0.290544   
     43. A(C   0,C   6,H   8)          112.5757         0.334505   
     44. A(C   0,C   6,H   7)          111.1616         0.333250   
     45. A(O  16,N  14,H  17)           59.0286         0.089006   
     46. A(O  15,N  14,H  17)           67.8365         0.089006   
     47. A(C   3,N  14,H  17)          169.1367         0.089005   
     48. A(O  15,N  14,O  16)          126.0076         0.492830   
     49. A(C   3,N  14,O  16)          116.8909         0.430560   
     50. A(C   3,N  14,O  15)          117.1015         0.430753   
     51. A(N  14,O  15,H  17)          107.4291         0.089008   
     52. A(N  14,O  16,H  17)          116.5298         0.089009   
     53. A(O  15,H  17,O  16)            9.1411         0.089000   
     54. D(H  10,C   1,C   0,C   5)   -179.9274         0.022129   
     55. D(H  10,C   1,C   0,C   6)     -0.7466         0.022129   
     56. D(C   2,C   1,C   0,C   6)    179.4638         0.022129   
     57. D(C   2,C   1,C   0,C   5)      0.2830         0.022129   
     58. D(C   3,C   2,C   1,C   0)     -0.4939         0.030851   
     59. D(H  11,C   2,C   1,H  10)     -0.4906         0.030851   
     60. D(C   3,C   2,C   1,H  10)    179.7181         0.030851   
     61. D(H  11,C   2,C   1,C   0)    179.2974         0.030851   
     62. D(N  14,C   3,C   2,H  11)      0.2021         0.024642   
     63. D(N  14,C   3,C   2,C   1)    179.9982         0.024642   
     64. D(C   4,C   3,C   2,H  11)   -179.5507         0.024642   
     65. D(C   4,C   3,C   2,C   1)      0.2454         0.024642   
     66. D(C   5,C   4,C   3,N  14)   -179.5274         0.024951   
     67. D(H  12,C   4,C   3,C   2)   -179.6870         0.024951   
     68. D(C   5,C   4,C   3,C   2)      0.2251         0.024951   
     69. D(H  12,C   4,C   3,N  14)      0.5605         0.024951   
     70. D(H  13,C   5,C   4,H  12)     -0.5151         0.031166   
     71. D(C   0,C   5,C   4,H  12)    179.4659         0.031166   
     72. D(C   0,C   5,C   4,C   3)     -0.4441         0.031166   
     73. D(H  13,C   5,C   0,C   6)      0.9962         0.021273   
     74. D(H  13,C   5,C   0,C   1)   -179.8146         0.021273   
     75. D(H  13,C   5,C   4,C   3)    179.5749         0.031166   
     76. D(C   4,C   5,C   0,C   6)   -178.9850         0.021273   
     77. D(C   4,C   5,C   0,C   1)      0.2042         0.021273   
     78. D(H   9,C   6,C   0,C   5)     71.7595         0.014729   
     79. D(H   9,C   6,C   0,C   1)   -107.4132         0.014729   
     80. D(H   8,C   6,C   0,C   5)   -168.0773         0.014729   
     81. D(H   8,C   6,C   0,C   1)     12.7500         0.014729   
     82. D(H   7,C   6,C   0,C   5)    -44.4326         0.014729   
     83. D(H   7,C   6,C   0,C   1)    136.3947         0.014729   
     84. D(O  15,N  14,C   3,C   2)    140.4421         0.016121   
     85. D(H  17,N  14,C   3,C   4)     74.9239         0.016121   
     86. D(H  17,N  14,C   3,C   2)   -104.8401         0.016121   
     87. D(O  16,N  14,C   3,C   4)    140.1549         0.016121   
     88. D(O  16,N  14,C   3,C   2)    -39.6091         0.016121   
     89. D(O  15,N  14,C   3,C   4)    -39.7938         0.016121   
     90. D(H  17,O  15,N  14,O  16)    -10.5964         0.095038   
     91. D(H  17,O  15,N  14,C   3)    169.3471         0.095038   
     92. D(H  17,O  16,N  14,O  15)     11.4563         0.094486   
     93. D(H  17,O  16,N  14,C   3)   -168.4873         0.094486   
     94. D(O  15,H  17,O  16,N  14)     -5.1714         0.001500   
     95. D(O  16,H  17,O  15,N  14)      4.8514         0.001500   
    -----------------------------------------------------------------

Number of atoms                         .... 18
Number of degrees of freedom            .... 95

         *************************************************************
         *                GEOMETRY OPTIMIZATION CYCLE   1            *
         *************************************************************
---------------------------------
CARTESIAN COORDINATES (ANGSTROEM)
---------------------------------
  C     -5.698331    1.006861    0.334852
  C     -6.616805    1.670812   -0.513908
  C     -7.186193    1.020456   -1.580915
  C     -6.824706   -0.314265   -1.811766
  C     -5.917458   -1.009993   -1.003189
  C     -5.365665   -0.347975    0.064237
  C     -5.073057    1.708404    1.479810
  H     -5.065278    1.077164    2.373245
  H     -5.556837    2.656751    1.703196
  H     -4.016019    1.911363    1.254476
  H     -6.871560    2.702503   -0.311759
  H     -7.897677    1.504854   -2.234411
  H     -5.671206   -2.037251   -1.230950
  H     -4.666182   -0.858185    0.713523
  N     -7.426084   -1.010687   -2.943604
  O     -6.705423   -1.753613   -3.583980
  O     -8.604984   -0.795037   -3.159763
  H    -14.695885   -8.948221  -12.004063

----------------------------
CARTESIAN COORDINATES (A.U.)
----------------------------
  NO LB      ZA    FRAG     MASS         X           Y           Z
   0 C     6.0000    0    12.011  -10.768285    1.902691    0.632778
   1 C     6.0000    0    12.011  -12.503949    3.157377   -0.971146
   2 C     6.0000    0    12.011  -13.579936    1.928382   -2.987496
   3 C     6.0000    0    12.011  -12.896825   -0.593874   -3.423742
   4 C     6.0000    0    12.011  -11.182375   -1.908611   -1.895752
   5 C     6.0000    0    12.011  -10.139638   -0.657577    0.121391
   6 C     6.0000    0    12.011   -9.586689    3.228415    2.796436
   7 H     1.0000    0     1.008   -9.571989    2.035545    4.484784
   8 H     1.0000    0     1.008  -10.500901    5.020532    3.218573
   9 H     1.0000    0     1.008   -7.589176    3.611952    2.370616
  10 H     1.0000    0     1.008  -12.985366    5.106990   -0.589139
  11 H     1.0000    0     1.008  -14.924447    2.843762   -4.222426
  12 H     1.0000    0     1.008  -10.717026   -3.849847   -2.326158
  13 H     1.0000    0     1.008   -8.817806   -1.621735    1.348364
  14 N     7.0000    0    14.007  -14.033265   -1.909921   -5.562605
  15 O     8.0000    0    15.999  -12.671413   -3.313848   -6.772742
  16 O     8.0000    0    15.999  -16.261063   -1.502402   -5.971087
  17 H     1.0000    0     1.008  -27.771198  -16.909687  -22.684392

--------------------------------
INTERNAL COORDINATES (ANGSTROEM)
--------------------------------
 C      0   0   0     0.000000000000     0.00000000     0.00000000
 C      1   0   0     1.415916102547     0.00000000     0.00000000
 C      2   1   0     1.373196759875   120.84167607     0.00000000
 C      3   2   1     1.401942620693   118.15980530   359.50612514
 C      4   3   2     1.400333675286   123.02337388     0.24543763
 C      5   4   3     1.371911804341   118.04075642     0.22509311
 C      1   2   3     1.481235909407   121.00350522   179.46384031
 H      7   1   2     1.093960728936   111.16158970   136.39470606
 H      7   1   2     1.087799061602   112.57567849    12.75000666
 H      7   1   2     1.099680759854   109.55936082   252.58682893
 H      2   1   3     1.081734847109   119.20744282   179.78954700
 H      3   2   1     1.080698631184   122.04361923   179.29743172
 H      5   4   3     1.080635938744   119.88274034   180.31303107
 H      6   5   4     1.082203328928   119.95200302   179.57487130
 N      4   3   2     1.458669174055   118.42507527   179.99823466
 O     15   4   3     1.217116799059   117.10151088   140.44213280
 O     15   4   3     1.217799135591   116.89091421   320.39086367
 H     17  15   4    13.483142550772   116.52982491   191.51268326

---------------------------
INTERNAL COORDINATES (A.U.)
---------------------------
 C      0   0   0     0.000000000000     0.00000000     0.00000000
 C      1   0   0     2.675693662423     0.00000000     0.00000000
 C      2   1   0     2.594965804152   120.84167607     0.00000000
 C      3   2   1     2.649287608581   118.15980530   359.50612514
 C      4   3   2     2.646247142397   123.02337388     0.24543763
 C      5   4   3     2.592537590099   118.04075642     0.22509311
 C      1   2   3     2.799130208510   121.00350522   179.46384031
 H      7   1   2     2.067286178955   111.16158970   136.39470606
 H      7   1   2     2.055642315165   112.57567849    12.75000666
 H      7   1   2     2.078095470867   109.55936082   252.58682893
 H      2   1   3     2.044182610554   119.20744282   179.78954700
 H      3   2   1     2.042224446241   122.04361923   179.29743172
 H      5   4   3     2.042105974698   119.88274034   180.31303107
 H      6   5   4     2.045067912892   119.95200302   179.57487130
 N      4   3   2     2.756485258957   118.42507527   179.99823466
 O     15   4   3     2.300017423217   117.10151088   140.44213280
 O     15   4   3     2.301306852394   116.89091421   320.39086367
 H     17  15   4    25.479446845580   116.52982491   191.51268326

---------------------
BASIS SET INFORMATION
---------------------
There are 4 groups of distinct atoms

 Group   1 Type C   : 7s4p1d contracted to 3s2p1d pattern {511/31/1}
 Group   2 Type H   : 4s1p contracted to 2s1p pattern {31/1}
 Group   3 Type N   : 7s4p1d contracted to 3s2p1d pattern {511/31/1}
 Group   4 Type O   : 7s4p1d contracted to 3s2p1d pattern {511/31/1}

Atom   0C    basis set group =>   1
Atom   1C    basis set group =>   1
Atom   2C    basis set group =>   1
Atom   3C    basis set group =>   1
Atom   4C    basis set group =>   1
Atom   5C    basis set group =>   1
Atom   6C    basis set group =>   1
Atom   7H    basis set group =>   2
Atom   8H    basis set group =>   2
Atom   9H    basis set group =>   2
Atom  10H    basis set group =>   2
Atom  11H    basis set group =>   2
Atom  12H    basis set group =>   2
Atom  13H    basis set group =>   2
Atom  14N    basis set group =>   3
Atom  15O    basis set group =>   4
Atom  16O    basis set group =>   4
Atom  17H    basis set group =>   2
---------------------------------
AUXILIARY/J BASIS SET INFORMATION
---------------------------------
There are 4 groups of distinct atoms

 Group   1 Type C   : 12s5p4d2f1g contracted to 6s4p3d1f1g pattern {711111/2111/211/2/1}
 Group   2 Type H   : 5s2p1d contracted to 3s1p1d pattern {311/2/1}
 Group   3 Type N   : 12s5p4d2f1g contracted to 6s4p3d1f1g pattern {711111/2111/211/2/1}
 Group   4 Type O   : 12s5p4d2f1g contracted to 6s4p3d1f1g pattern {711111/2111/211/2/1}

Atom   0C    basis set group =>   1
Atom   1C    basis set group =>   1
Atom   2C    basis set group =>   1
Atom   3C    basis set group =>   1
Atom   4C    basis set group =>   1
Atom   5C    basis set group =>   1
Atom   6C    basis set group =>   1
Atom   7H    basis set group =>   2
Atom   8H    basis set group =>   2
Atom   9H    basis set group =>   2
Atom  10H    basis set group =>   2
Atom  11H    basis set group =>   2
Atom  12H    basis set group =>   2
Atom  13H    basis set group =>   2
Atom  14N    basis set group =>   3
Atom  15O    basis set group =>   4
Atom  16O    basis set group =>   4
Atom  17H    basis set group =>   2
------------------------------------------------------------------------------
                           ORCA GTO INTEGRAL CALCULATION
                           -- RI-GTO INTEGRALS CHOSEN --
------------------------------------------------------------------------------
------------------------------------------------------------------------------
                   ___                                                        
                  /   \      - P O W E R E D   B Y -                         
                 /     \                                                     
                 |  |  |   _    _      __       _____    __    __             
                 |  |  |  | |  | |    /  \     |  _  \  |  |  /  |          
                  \  \/   | |  | |   /    \    | | | |  |  | /  /          
                 / \  \   | |__| |  /  /\  \   | |_| |  |  |/  /          
                |  |  |   |  __  | /  /__\  \  |    /   |      \           
                |  |  |   | |  | | |   __   |  |    \   |  |\   \          
                \     /   | |  | | |  |  |  |  | |\  \  |  | \   \       
                 \___/    |_|  |_| |__|  |__|  |_| \__\ |__|  \__/        
                                                                              
                      - O R C A' S   B I G   F R I E N D -                    
                                      &                                       
                       - I N T E G R A L  F E E D E R -                       
                                                                              
 v1 FN, 2020, v2 2021                                                         
------------------------------------------------------------------------------


Reading SHARK input file p_p_opt_8.SHARKINP.tmp ... ok
----------------------
SHARK INTEGRAL PACKAGE
----------------------

Number of atoms                             ...     18
Number of basis functions                   ...    180
Number of shells                            ...     84
Maximum angular momentum                    ...      2
Integral batch strategy                     ... SHARK/LIBINT Hybrid
RI-J (if used) integral strategy            ... SPLIT-RIJ (Revised 2003 algorithm where possible)
Printlevel                                  ...      1
Contraction scheme used                     ... SEGMENTED contraction
Coulomb Range Separation                    ... NOT USED
Exchange Range Separation                   ... NOT USED
Finite Nucleus Model                        ... NOT USED
Auxiliary Coulomb fitting basis             ... AVAILABLE
   # of basis functions in Aux-J            ...    578
   # of shells in Aux-J                     ...    190
   Maximum angular momentum in Aux-J        ...      4
Auxiliary J/K fitting basis                 ... NOT available
Auxiliary Correlation fitting basis         ... NOT available
Auxiliary 'external' fitting basis          ... NOT available
Integral threshold                          ...     2.500000e-11
Primitive cut-off                           ...     2.500000e-12
Primitive pair pre-selection threshold      ...     2.500000e-12

Calculating pre-screening integrals         ... done (  0.1 sec) Dimension = 84
Organizing shell pair data                  ... done (  0.0 sec)
Shell pair information
Total number of shell pairs                 ...      3570
Shell pairs after pre-screening             ...      3001
Total number of primitive shell pairs       ...     13034
Primitive shell pairs kept                  ...      7930
          la=0 lb=0:    896 shell pairs
          la=1 lb=0:   1085 shell pairs
          la=1 lb=1:    347 shell pairs
          la=2 lb=0:    385 shell pairs
          la=2 lb=1:    240 shell pairs
          la=2 lb=2:     48 shell pairs

Calculating one electron integrals          ... done (  0.0 sec)
Calculating RI/J V-Matrix + Cholesky decomp.... done (  0.0 sec)
Calculating Nuclear repulsion               ... done (  0.0 sec) ENN=    496.265420448468 Eh

SHARK setup successfully completed in   0.3 seconds

Maximum memory used throughout the entire GTOINT-calculation: 24.6 MB
-------------------------------------------------------------------------------
                                 ORCA SCF
-------------------------------------------------------------------------------

------------
SCF SETTINGS
------------
Hamiltonian:
 Density Functional     Method          .... DFT(GTOs)
 Exchange Functional    Exchange        .... B88
   X-Alpha parameter    XAlpha          ....  0.666667
   Becke's b parameter  XBeta           ....  0.004200
 Correlation Functional Correlation     .... LYP
 LDA part of GGA corr.  LDAOpt          .... VWN-3
 Gradients option       PostSCFGGA      .... off
 Hybrid DFT is turned on
   Fraction HF Exchange ScalHFX         ....  0.200000
   Scaling of DF-GGA-X  ScalDFX         ....  0.720000
   Scaling of DF-GGA-C  ScalDFC         ....  0.810000
   Scaling of DF-LDA-C  ScalLDAC        ....  1.000000
   Perturbative correction              ....  0.000000
   Density functional embedding theory  .... OFF
   NL short-range parameter             ....  4.800000
 RI-approximation to the Coulomb term is turned on
   Number of AuxJ basis functions       .... 578
   RIJ-COSX (HFX calculated with COS-X)).... on


General Settings:
 Integral files         IntName         .... p_p_opt_8
 Hartree-Fock type      HFTyp           .... RHF
 Total Charge           Charge          ....    1
 Multiplicity           Mult            ....    1
 Number of Electrons    NEL             ....   72
 Basis Dimension        Dim             ....  180
 Nuclear Repulsion      ENuc            ....    496.2654204485 Eh

Convergence Acceleration:
 DIIS                   CNVDIIS         .... on
   Start iteration      DIISMaxIt       ....    12
   Startup error        DIISStart       ....  0.200000
   # of expansion vecs  DIISMaxEq       ....     5
   Bias factor          DIISBfac        ....   1.050
   Max. coefficient     DIISMaxC        ....  10.000
 Trust-Rad. Augm. Hess. CNVTRAH         .... auto
   Auto Start mean grad. ratio tolernc. ....  1.125000
   Auto Start start iteration           ....    20
   Auto Start num. interpolation iter.  ....    10
   Max. Number of Micro iterations      ....    16
   Max. Number of Macro iterations      .... Maxiter - #DIIS iter
   Number of Davidson start vectors     ....     2
   Converg. threshold I  (grad. norm)   ....   1.000e-05
   Converg. threshold II (energy diff.) ....   1.000e-08
   Grad. Scal. Fac. for Micro threshold ....   0.100
   Minimum threshold for Micro iter.    ....   0.010
   NR start threshold (gradient norm)   ....   0.001
   Initial trust radius                 ....   0.400
   Minimum AH scaling param. (alpha)    ....   1.000
   Maximum AH scaling param. (alpha)    .... 1000.000
   Orbital update algorithm             .... Taylor
   White noise on init. David. guess    .... on
   Maximum white noise                  ....   0.010
   Quad. conv. algorithm                .... NR
 SOSCF                  CNVSOSCF        .... on
   Start iteration      SOSCFMaxIt      ....   150
   Startup grad/error   SOSCFStart      ....  0.003300
 Level Shifting         CNVShift        .... on
   Level shift para.    LevelShift      ....    0.2500
   Turn off err/grad.   ShiftErr        ....    0.0010
 Zerner damping         CNVZerner       .... off
 Static damping         CNVDamp         .... on
   Fraction old density DampFac         ....    0.7000
   Max. Damping (<1)    DampMax         ....    0.9800
   Min. Damping (>=0)   DampMin         ....    0.0000
   Turn off err/grad.   DampErr         ....    0.1000
 Fernandez-Rico         CNVRico         .... off

SCF Procedure:
 Maximum # iterations   MaxIter         ....   125
 SCF integral mode      SCFMode         .... Direct
   Integral package                     .... SHARK and LIBINT hybrid scheme
 Reset frequency        DirectResetFreq ....    20
 Integral Threshold     Thresh          ....  2.500e-11 Eh
 Primitive CutOff       TCut            ....  2.500e-12 Eh

Convergence Tolerance:
 Convergence Check Mode ConvCheckMode   .... Total+1el-Energy
 Convergence forced     ConvForced      .... 0
 Energy Change          TolE            ....  1.000e-08 Eh
 1-El. energy change                    ....  1.000e-05 Eh
 Orbital Gradient       TolG            ....  1.000e-05
 Orbital Rotation angle TolX            ....  1.000e-05
 DIIS Error             TolErr          ....  5.000e-07


Diagonalization of the overlap matrix:
Smallest eigenvalue                        ... 2.802e-04
Time for diagonalization                   ...    0.008 sec
Threshold for overlap eigenvalues          ... 1.000e-08
Number of eigenvalues below threshold      ... 0
Time for construction of square roots      ...    0.005 sec
Total time needed                          ...    0.013 sec

Time for model grid setup =    0.488 sec

------------------------------
INITIAL GUESS: MODEL POTENTIAL
------------------------------
Loading Hartree-Fock densities                     ... done
Calculating cut-offs                               ... done
Initializing the effective Hamiltonian             ... done
Setting up the integral package (SHARK)            ... done
Starting the Coulomb interaction                   ... done (   0.5 sec)
Reading the grid                                   ... done
Mapping shells                                     ... done
Starting the XC term evaluation                    ... done (   1.2 sec)
  promolecular density results
     # of electrons  =     72.999288340
     EX              =    -61.302338688
     EC              =     -2.482212779
     EX+EC           =    -63.784551468
Transforming the Hamiltonian                       ... done (   0.0 sec)
Diagonalizing the Hamiltonian                      ... done (   0.0 sec)
Back transforming the eigenvectors                 ... done (   0.0 sec)
Now organizing SCF variables                       ... done
                      ------------------
                      INITIAL GUESS DONE (   2.3 sec)
                      ------------------
-------------------
DFT GRID GENERATION
-------------------

General Integration Accuracy     IntAcc      ... 4.388
Radial Grid Type                 RadialGrid  ... OptM3 with GC (2021)
Angular Grid (max. ang.)         AngularGrid ... 4 (Lebedev-302)
Angular grid pruning method      GridPruning ... 4 (adaptive)
Weight generation scheme         WeightScheme... Becke
Basis function cutoff            BFCut       ... 1.0000e-11
Integration weight cutoff        WCut        ... 1.0000e-14
Angular grids for H and He will be reduced by one unit
Partially contracted basis set               ... off
Rotationally invariant grid construction     ... off

Total number of grid points                  ...    86199
Total number of batches                      ...     1356
Average number of points per batch           ...       63
Average number of grid points per atom       ...     4789
Time for grid setup =    2.542 sec

--------------------
COSX GRID GENERATION
--------------------

GRIDX 1
-------
General Integration Accuracy     IntAcc      ... 3.816
Radial Grid Type                 RadialGrid  ... OptM3 with GC (2021)
Angular Grid (max. ang.)         AngularGrid ... 1 (Lebedev-50)
Angular grid pruning method      GridPruning ... 4 (adaptive)
Weight generation scheme         WeightScheme... Becke
Basis function cutoff            BFCut       ... 1.0000e-11
Integration weight cutoff        WCut        ... 1.0000e-14
Angular grids for H and He will be reduced by one unit
Partially contracted basis set               ... on
Rotationally invariant grid construction     ... off

Total number of grid points                  ...    10993
Total number of batches                      ...      180
Average number of points per batch           ...       61
Average number of grid points per atom       ...      611
UseSFitting                                  ... on

GRIDX 2
-------
General Integration Accuracy     IntAcc      ... 4.020
Radial Grid Type                 RadialGrid  ... OptM3 with GC (2021)
Angular Grid (max. ang.)         AngularGrid ... 2 (Lebedev-110)
Angular grid pruning method      GridPruning ... 4 (adaptive)
Weight generation scheme         WeightScheme... Becke
Basis function cutoff            BFCut       ... 1.0000e-11
Integration weight cutoff        WCut        ... 1.0000e-14
Angular grids for H and He will be reduced by one unit
Partially contracted basis set               ... on
Rotationally invariant grid construction     ... off

Total number of grid points                  ...    24169
Total number of batches                      ...      386
Average number of points per batch           ...       62
Average number of grid points per atom       ...     1343
UseSFitting                                  ... on

GRIDX 3
-------
General Integration Accuracy     IntAcc      ... 4.338
Radial Grid Type                 RadialGrid  ... OptM3 with GC (2021)
Angular Grid (max. ang.)         AngularGrid ... 3 (Lebedev-194)
Angular grid pruning method      GridPruning ... 4 (adaptive)
Weight generation scheme         WeightScheme... Becke
Basis function cutoff            BFCut       ... 1.0000e-11
Integration weight cutoff        WCut        ... 1.0000e-14
Angular grids for H and He will be reduced by one unit
Partially contracted basis set               ... on
Rotationally invariant grid construction     ... off

Total number of grid points                  ...    53259
Total number of batches                      ...      844
Average number of points per batch           ...       63
Average number of grid points per atom       ...     2959
UseSFitting                                  ... on

Time for X-Grid setup             =    3.002 sec

--------------
SCF ITERATIONS
--------------
ITER       Energy         Delta-E        Max-DP      RMS-DP      [F,P]     Damp
               ***  Starting incremental Fock matrix formation  ***
  0   -475.4461120093   0.000000000000 0.20729153  0.00368220  0.2184168 0.7000
  1   -475.7091264561  -0.263014446822 0.15087612  0.00230700  0.0732897 0.7000
                               ***Turning on DIIS***
  2   -475.7103384789  -0.001212022838 0.37914158  0.00478820  0.0359756 0.0000
  3   -475.3029715122   0.407366966667 0.18907998  0.00237130  0.2006842 0.7000
  4   -475.6787444742  -0.375772961976 0.44118662  0.00551938  0.0587733 0.0000
  5   -475.6900579044  -0.011313430149 0.01177972  0.00044545  0.0518537 0.0000
  6   -475.6994990983  -0.009441193951 0.00505994  0.00021623  0.0427128 0.0000
  7   -475.7029195739  -0.003420475554 0.01302644  0.00063375  0.0389445 0.0000
  8   -475.7109440141  -0.008024440202 0.00885533  0.00036392  0.0237802 0.0000
  9   -475.7139915693  -0.003047555252 0.01908923  0.00077676  0.0216055 0.0000
 10   -475.7177578024  -0.003766233020 0.01031156  0.00030624  0.0064765 0.0000
 11   -475.7180543121  -0.000296509710 0.00390213  0.00010045  0.0066430 0.0000
                      *** Initiating the SOSCF procedure ***
                           *** Shutting down DIIS ***
                      *** Re-Reading the Fockian *** 
                      *** Removing any level shift *** 
ITER      Energy       Delta-E        Grad      Rot      Max-DP    RMS-DP
 12   -475.71814237  -0.0000880563  0.000329  0.000329  0.001112  0.000034
               *** Restarting incremental Fock matrix formation ***
 13   -475.71816828  -0.0000259156  0.000248  0.001060  0.000916  0.000029
 14   -475.71816589   0.0000023909  0.000805  0.000888  0.000733  0.000016
 15   -475.71816932  -0.0000034280  0.000034  0.000177  0.000261  0.000008
 16   -475.71816927   0.0000000517  0.000045  0.000067  0.000112  0.000004
 17   -475.71816938  -0.0000001081  0.000008  0.000015  0.000029  0.000001
 18   -475.71816937   0.0000000043  0.000012  0.000010  0.000020  0.000000
                 **** Energy Check signals convergence ****
              ***Rediagonalizing the Fockian in SOSCF/NRSCF***

               *****************************************************
               *                     SUCCESS                       *
               *           SCF CONVERGED AFTER  19 CYCLES          *
               *****************************************************

Old exchange energy                            =    -12.335386401 Eh
New exchange energy                            =    -12.335395336 Eh
Exchange energy change after final integration =     -0.000008935 Eh
Total energy after final integration           =   -475.718178312 Eh
Final COS-X integration done in                =    18.762 sec

----------------
TOTAL SCF ENERGY
----------------

Total Energy       :         -475.71817831 Eh          -12944.94974 eV

Components:
Nuclear Repulsion  :          496.26542045 Eh           13504.06862 eV
Electronic Energy  :         -971.98359876 Eh          -26449.01836 eV
One Electron Energy:        -1626.50003403 Eh          -44259.31603 eV
Two Electron Energy:          654.51643527 Eh           17810.29766 eV
Max COSX asymmetry :            0.00000118 Eh               0.00003 eV

Virial components:
Potential Energy   :         -947.19326580 Eh          -25774.43911 eV
Kinetic Energy     :          471.47508748 Eh           12829.48937 eV
Virial Ratio       :            2.00899961


DFT components:
N(Alpha)           :       36.000016193924 electrons
N(Beta)            :       36.000016193924 electrons
N(Total)           :       72.000032387848 electrons
E(X)               :      -49.091924316814 Eh       
E(C)               :       -3.175137295439 Eh       
E(XC)              :      -52.267061612253 Eh       
DFET-embed. en.    :        0.000000000000 Eh       

---------------
SCF CONVERGENCE
---------------

  Last Energy change         ...   -3.2867e-09  Tolerance :   1.0000e-08
  Last MAX-Density change    ...    3.5527e-15  Tolerance :   1.0000e-07
  Last RMS-Density change    ...    4.7949e-17  Tolerance :   5.0000e-09
  Last Orbital Gradient      ...    6.4328e-07  Tolerance :   1.0000e-05
  Last Orbital Rotation      ...    1.9250e-06  Tolerance :   1.0000e-05

             **** THE GBW FILE WAS UPDATED (p_p_opt_8.gbw) ****
             **** DENSITY p_p_opt_8.scfp WAS UPDATED ****
             **** ENERGY FILE WAS UPDATED (p_p_opt_8.en.tmp) ****
             **** THE GBW FILE WAS UPDATED (p_p_opt_8.gbw) ****
             **** DENSITY p_p_opt_8.scfp WAS UPDATED ****
----------------
ORBITAL ENERGIES
----------------

  NO   OCC          E(Eh)            E(eV) 
   0   2.0000     -19.197015      -522.3773 
   1   2.0000     -19.196688      -522.3684 
   2   2.0000     -14.592391      -397.0791 
   3   2.0000     -10.280820      -279.7553 
   4   2.0000     -10.256444      -279.0920 
   5   2.0000     -10.251647      -278.9615 
   6   2.0000     -10.251527      -278.9582 
   7   2.0000     -10.243816      -278.7484 
   8   2.0000     -10.243566      -278.7416 
   9   2.0000     -10.232684      -278.4455 
  10   2.0000      -1.260042       -34.2875 
  11   2.0000      -1.086442       -29.5636 
  12   2.0000      -0.920366       -25.0444 
  13   2.0000      -0.848510       -23.0891 
  14   2.0000      -0.805600       -21.9215 
  15   2.0000      -0.775835       -21.1115 
  16   2.0000      -0.688514       -18.7354 
  17   2.0000      -0.667337       -18.1592 
  18   2.0000      -0.622933       -16.9509 
  19   2.0000      -0.588492       -16.0137 
  20   2.0000      -0.577054       -15.7025 
  21   2.0000      -0.546336       -14.8666 
  22   2.0000      -0.525941       -14.3116 
  23   2.0000      -0.516218       -14.0470 
  24   2.0000      -0.494009       -13.4427 
  25   2.0000      -0.488673       -13.2975 
  26   2.0000      -0.471559       -12.8318 
  27   2.0000      -0.440697       -11.9920 
  28   2.0000      -0.422472       -11.4961 
  29   2.0000      -0.417531       -11.3616 
  30   2.0000      -0.400476       -10.8975 
  31   2.0000      -0.349063        -9.4985 
  32   2.0000      -0.342881        -9.3303 
  33   2.0000      -0.337014        -9.1706 
  34   2.0000      -0.318551        -8.6682 
  35   2.0000      -0.295298        -8.0355 
  36   0.0000      -0.496878       -13.5208 
  37   0.0000      -0.115410        -3.1405 
  38   0.0000      -0.063760        -1.7350 
  39   0.0000      -0.049497        -1.3469 
  40   0.0000       0.019838         0.5398 
  41   0.0000       0.041615         1.1324 
  42   0.0000       0.049472         1.3462 
  43   0.0000       0.071228         1.9382 
  44   0.0000       0.088996         2.4217 
  45   0.0000       0.100344         2.7305 
  46   0.0000       0.115982         3.1560 
  47   0.0000       0.123271         3.3544 
  48   0.0000       0.144794         3.9400 
  49   0.0000       0.176531         4.8036 
  50   0.0000       0.184097         5.0095 
  51   0.0000       0.222849         6.0640 
  52   0.0000       0.236436         6.4337 
  53   0.0000       0.246503         6.7077 
  54   0.0000       0.255386         6.9494 
  55   0.0000       0.271043         7.3755 
  56   0.0000       0.300013         8.1638 
  57   0.0000       0.337357         9.1800 
  58   0.0000       0.356448         9.6995 
  59   0.0000       0.359024         9.7695 
  60   0.0000       0.381766        10.3884 
  61   0.0000       0.392769        10.6878 
  62   0.0000       0.404016        10.9938 
  63   0.0000       0.407867        11.0986 
  64   0.0000       0.424509        11.5515 
  65   0.0000       0.434200        11.8152 
  66   0.0000       0.463114        12.6020 
  67   0.0000       0.482416        13.1272 
  68   0.0000       0.516137        14.0448 
  69   0.0000       0.530009        14.4223 
  70   0.0000       0.543822        14.7982 
  71   0.0000       0.569467        15.4960 
  72   0.0000       0.579458        15.7679 
  73   0.0000       0.589308        16.0359 
  74   0.0000       0.593901        16.1609 
  75   0.0000       0.601820        16.3763 
  76   0.0000       0.619432        16.8556 
  77   0.0000       0.623434        16.9645 
  78   0.0000       0.632084        17.1999 
  79   0.0000       0.636251        17.3133 
  80   0.0000       0.650309        17.6958 
  81   0.0000       0.661401        17.9976 
  82   0.0000       0.674916        18.3654 
  83   0.0000       0.685902        18.6644 
  84   0.0000       0.717483        19.5237 
  85   0.0000       0.738373        20.0921 
  86   0.0000       0.749088        20.3837 
  87   0.0000       0.782181        21.2842 
  88   0.0000       0.785046        21.3622 
  89   0.0000       0.854501        23.2522 
  90   0.0000       0.871898        23.7256 
  91   0.0000       0.877541        23.8791 
  92   0.0000       0.919951        25.0331 
  93   0.0000       0.930110        25.3096 
  94   0.0000       0.938924        25.5494 
  95   0.0000       0.995118        27.0785 
  96   0.0000       1.008387        27.4396 
  97   0.0000       1.050870        28.5956 
  98   0.0000       1.050870        28.5956 
  99   0.0000       1.050878        28.5958 
 100   0.0000       1.056905        28.7598 
 101   0.0000       1.066250        29.0141 
 102   0.0000       1.091366        29.6976 
 103   0.0000       1.101406        29.9708 
 104   0.0000       1.116677        30.3863 
 105   0.0000       1.181675        32.1550 
 106   0.0000       1.190331        32.3906 
 107   0.0000       1.203335        32.7444 
 108   0.0000       1.210689        32.9445 
 109   0.0000       1.228830        33.4382 
 110   0.0000       1.240294        33.7501 
 111   0.0000       1.339710        36.4554 
 112   0.0000       1.345594        36.6155 
 113   0.0000       1.418435        38.5976 
 114   0.0000       1.438427        39.1416 
 115   0.0000       1.477848        40.2143 
 116   0.0000       1.499862        40.8133 
 117   0.0000       1.546835        42.0915 
 118   0.0000       1.628073        44.3021 
 119   0.0000       1.641784        44.6752 
 120   0.0000       1.667899        45.3858 
 121   0.0000       1.681609        45.7589 
 122   0.0000       1.688638        45.9502 
 123   0.0000       1.697851        46.2009 
 124   0.0000       1.699222        46.2382 
 125   0.0000       1.710340        46.5407 
 126   0.0000       1.745351        47.4934 
 127   0.0000       1.751546        47.6620 
 128   0.0000       1.755825        47.7784 
 129   0.0000       1.775352        48.3098 
 130   0.0000       1.798231        48.9324 
 131   0.0000       1.861260        50.6475 
 132   0.0000       1.876089        51.0510 
 133   0.0000       1.885817        51.3157 
 134   0.0000       1.927715        52.4558 
 135   0.0000       1.966999        53.5248 
 136   0.0000       1.985749        54.0350 
 137   0.0000       2.007951        54.6391 
 138   0.0000       2.040037        55.5122 
 139   0.0000       2.044650        55.6377 
 140   0.0000       2.072814        56.4041 
 141   0.0000       2.105263        57.2871 
 142   0.0000       2.113345        57.5070 
 143   0.0000       2.185897        59.4813 
 144   0.0000       2.219047        60.3833 
 145   0.0000       2.239045        60.9275 
 146   0.0000       2.252054        61.2815 
 147   0.0000       2.292243        62.3751 
 148   0.0000       2.311530        62.8999 
 149   0.0000       2.331490        63.4431 
 150   0.0000       2.365536        64.3695 
 151   0.0000       2.408491        65.5384 
 152   0.0000       2.415432        65.7272 
 153   0.0000       2.442275        66.4577 
 154   0.0000       2.510153        68.3047 
 155   0.0000       2.554530        69.5123 
 156   0.0000       2.561918        69.7133 
 157   0.0000       2.591678        70.5231 
 158   0.0000       2.597502        70.6816 
 159   0.0000       2.610899        71.0462 
 160   0.0000       2.623325        71.3843 
 161   0.0000       2.638050        71.7850 
 162   0.0000       2.687089        73.1194 
 163   0.0000       2.697172        73.3938 
 164   0.0000       2.712796        73.8189 
 165   0.0000       2.773614        75.4739 
 166   0.0000       2.808050        76.4109 
 167   0.0000       2.843614        77.3787 
 168   0.0000       2.879061        78.3432 
 169   0.0000       2.896664        78.8222 
 170   0.0000       2.945554        80.1526 
 171   0.0000       3.021110        82.2086 
 172   0.0000       3.076945        83.7279 
 173   0.0000       3.144166        85.5571 
 174   0.0000       3.252260        88.4985 
 175   0.0000       3.266755        88.8929 
 176   0.0000       3.347340        91.0857 
 177   0.0000       3.557533        96.8054 
 178   0.0000       3.696131       100.5768 
 179   0.0000       3.726143       101.3935 

                    ********************************
                    * MULLIKEN POPULATION ANALYSIS *
                    ********************************

-----------------------
MULLIKEN ATOMIC CHARGES
-----------------------
   0 C :   -0.031346
   1 C :   -0.008538
   2 C :    0.040151
   3 C :    0.115408
   4 C :    0.038583
   5 C :   -0.010273
   6 C :    0.088542
   7 H :    0.027957
   8 H :    0.016262
   9 H :    0.038186
  10 H :   -0.019039
  11 H :   -0.007062
  12 H :   -0.007221
  13 H :   -0.019828
  14 N :    0.231435
  15 O :   -0.245827
  16 O :   -0.247391
  17 H :    1.000000
Sum of atomic charges:    1.0000000

--------------------------------
MULLIKEN REDUCED ORBITAL CHARGES
--------------------------------
  0 C s       :     3.079643  s :     3.079643
      pz      :     0.969132  p :     2.908439
      px      :     0.953697
      py      :     0.985610
      dz2     :     0.009067  d :     0.043264
      dxz     :     0.006445
      dyz     :     0.010512
      dx2y2   :     0.008797
      dxy     :     0.008442
  1 C s       :     3.212498  s :     3.212498
      pz      :     0.938416  p :     2.761463
      px      :     0.976519
      py      :     0.846529
      dz2     :     0.008096  d :     0.034576
      dxz     :     0.006150
      dyz     :     0.007713
      dx2y2   :     0.006854
      dxy     :     0.005763
  2 C s       :     3.238430  s :     3.238430
      pz      :     0.866238  p :     2.686291
      px      :     0.872726
      py      :     0.947327
      dz2     :     0.006885  d :     0.035128
      dxz     :     0.005821
      dyz     :     0.008149
      dx2y2   :     0.007193
      dxy     :     0.007080
  3 C s       :     3.002681  s :     3.002681
      pz      :     0.917510  p :     2.833467
      px      :     0.969941
      py      :     0.946015
      dz2     :     0.009049  d :     0.048444
      dxz     :     0.007618
      dyz     :     0.013160
      dx2y2   :     0.008364
      dxy     :     0.010254
  4 C s       :     3.236296  s :     3.236296
      pz      :     0.942774  p :     2.689820
      px      :     0.945520
      py      :     0.801526
      dz2     :     0.008065  d :     0.035301
      dxz     :     0.006223
      dyz     :     0.008310
      dx2y2   :     0.007139
      dxy     :     0.005563
  5 C s       :     3.216693  s :     3.216693
      pz      :     0.907589  p :     2.759273
      px      :     0.917629
      py      :     0.934055
      dz2     :     0.006510  d :     0.034307
      dxz     :     0.005440
      dyz     :     0.009042
      dx2y2   :     0.006294
      dxy     :     0.007021
  6 C s       :     2.923262  s :     2.923262
      pz      :     0.973957  p :     2.959329
      px      :     1.005400
      py      :     0.979973
      dz2     :     0.006599  d :     0.028866
      dxz     :     0.003866
      dyz     :     0.007724
      dx2y2   :     0.006154
      dxy     :     0.004522
  7 H s       :     0.948044  s :     0.948044
      pz      :     0.011209  p :     0.023999
      px      :     0.005187
      py      :     0.007603
  8 H s       :     0.960084  s :     0.960084
      pz      :     0.004910  p :     0.023654
      px      :     0.006659
      py      :     0.012085
  9 H s       :     0.937517  s :     0.937517
      pz      :     0.005161  p :     0.024297
      px      :     0.013548
      py      :     0.005588
 10 H s       :     0.995687  s :     0.995687
      pz      :     0.004286  p :     0.023352
      px      :     0.004813
      py      :     0.014253
 11 H s       :     0.983389  s :     0.983389
      pz      :     0.008248  p :     0.023673
      px      :     0.009689
      py      :     0.005736
 12 H s       :     0.983556  s :     0.983556
      pz      :     0.004561  p :     0.023665
      px      :     0.004638
      py      :     0.014466
 13 H s       :     0.996484  s :     0.996484
      pz      :     0.008114  p :     0.023344
      px      :     0.009100
      py      :     0.006130
 14 N s       :     3.309628  s :     3.309628
      pz      :     1.150032  p :     3.341136
      px      :     1.043277
      py      :     1.147826
      dz2     :     0.018692  d :     0.117802
      dxz     :     0.031146
      dyz     :     0.011208
      dx2y2   :     0.027170
      dxy     :     0.029586
 15 O s       :     3.862662  s :     3.862662
      pz      :     1.474801  p :     4.360706
      px      :     1.557875
      py      :     1.328030
      dz2     :     0.003607  d :     0.022459
      dxz     :     0.004988
      dyz     :     0.004461
      dx2y2   :     0.003979
      dxy     :     0.005425
 16 O s       :     3.862580  s :     3.862580
      pz      :     1.679931  p :     4.362408
      px      :     1.122726
      py      :     1.559751
      dz2     :     0.002889  d :     0.022403
      dxz     :     0.005348
      dyz     :     0.000508
      dx2y2   :     0.007754
      dxy     :     0.005904
 17 H s       :     0.000000  s :     0.000000
      pz      :     0.000000  p :     0.000000
      px      :     0.000000
      py      :     0.000000


                     *******************************
                     * LOEWDIN POPULATION ANALYSIS *
                     *******************************

----------------------
LOEWDIN ATOMIC CHARGES
----------------------
   0 C :    0.001911
   1 C :   -0.020122
   2 C :   -0.000687
   3 C :   -0.023703
   4 C :   -0.002179
   5 C :   -0.017022
   6 C :   -0.041720
   7 H :    0.037775
   8 H :    0.031077
   9 H :    0.044389
  10 H :    0.030026
  11 H :    0.037944
  12 H :    0.037811
  13 H :    0.029866
  14 N :    0.272496
  15 O :   -0.208147
  16 O :   -0.209715
  17 H :    1.000000

-------------------------------
LOEWDIN REDUCED ORBITAL CHARGES
-------------------------------
  0 C s       :     2.861473  s :     2.861473
      pz      :     1.002041  p :     3.031067
      px      :     0.978510
      py      :     1.050516
      dz2     :     0.020312  d :     0.105548
      dxz     :     0.015784
      dyz     :     0.026447
      dx2y2   :     0.021719
      dxy     :     0.021286
  1 C s       :     2.855663  s :     2.855663
      pz      :     1.028484  p :     3.073410
      px      :     1.011776
      py      :     1.033150
      dz2     :     0.019984  d :     0.091049
      dxz     :     0.017517
      dyz     :     0.021393
      dx2y2   :     0.017471
      dxy     :     0.014684
  2 C s       :     2.857258  s :     2.857258
      pz      :     1.023779  p :     3.051055
      px      :     0.988538
      py      :     1.038738
      dz2     :     0.017083  d :     0.092374
      dxz     :     0.014753
      dyz     :     0.023280
      dx2y2   :     0.019297
      dxy     :     0.017960
  3 C s       :     2.863464  s :     2.863464
      pz      :     0.957951  p :     3.037898
      px      :     1.032085
      py      :     1.047862
      dz2     :     0.022013  d :     0.122341
      dxz     :     0.019569
      dyz     :     0.033741
      dx2y2   :     0.021280
      dxy     :     0.025737
  4 C s       :     2.856355  s :     2.856355
      pz      :     1.028179  p :     3.052952
      px      :     0.984044
      py      :     1.040728
      dz2     :     0.019850  d :     0.092873
      dxz     :     0.017797
      dyz     :     0.022733
      dx2y2   :     0.018008
      dxy     :     0.014485
  5 C s       :     2.856114  s :     2.856114
      pz      :     1.027693  p :     3.070467
      px      :     1.002834
      py      :     1.039939
      dz2     :     0.016219  d :     0.090442
      dxz     :     0.013965
      dyz     :     0.025355
      dx2y2   :     0.017253
      dxy     :     0.017650
  6 C s       :     2.823506  s :     2.823506
      pz      :     1.035004  p :     3.143321
      px      :     1.057042
      py      :     1.051275
      dz2     :     0.016896  d :     0.074893
      dxz     :     0.009785
      dyz     :     0.020706
      dx2y2   :     0.015662
      dxy     :     0.011846
  7 H s       :     0.896606  s :     0.896606
      pz      :     0.031323  p :     0.065619
      px      :     0.013063
      py      :     0.021233
  8 H s       :     0.902921  s :     0.902921
      pz      :     0.013502  p :     0.066002
      px      :     0.018069
      py      :     0.034432
  9 H s       :     0.890452  s :     0.890452
      pz      :     0.013778  p :     0.065158
      px      :     0.038117
      py      :     0.013264
 10 H s       :     0.900959  s :     0.900959
      pz      :     0.013127  p :     0.069016
      px      :     0.015148
      py      :     0.040741
 11 H s       :     0.891022  s :     0.891022
      pz      :     0.024765  p :     0.071034
      px      :     0.027953
      py      :     0.018315
 12 H s       :     0.891233  s :     0.891233
      pz      :     0.014272  p :     0.070957
      px      :     0.014511
      py      :     0.042173
 13 H s       :     0.901230  s :     0.901230
      pz      :     0.023536  p :     0.068904
      px      :     0.026513
      py      :     0.018855
 14 N s       :     3.046268  s :     3.046268
      pz      :     1.159207  p :     3.432606
      px      :     1.137637
      py      :     1.135762
      dz2     :     0.039210  d :     0.248629
      dxz     :     0.063881
      dyz     :     0.023817
      dx2y2   :     0.058132
      dxy     :     0.063589
 15 O s       :     3.618654  s :     3.618654
      pz      :     1.529188  p :     4.546206
      px      :     1.616539
      py      :     1.400478
      dz2     :     0.005170  d :     0.043287
      dxz     :     0.010213
      dyz     :     0.010098
      dx2y2   :     0.005915
      dxy     :     0.011890
 16 O s       :     3.619060  s :     3.619060
      pz      :     1.683070  p :     4.547479
      px      :     1.294197
      py      :     1.570212
      dz2     :     0.006206  d :     0.043175
      dxz     :     0.009106
      dyz     :     0.000694
      dx2y2   :     0.017830
      dxy     :     0.009340
 17 H s       :     0.000000  s :     0.000000
      pz      :     0.000000  p :     0.000000
      px      :     0.000000
      py      :     0.000000


                      *****************************
                      * MAYER POPULATION ANALYSIS *
                      *****************************

  NA   - Mulliken gross atomic population
  ZA   - Total nuclear charge
  QA   - Mulliken gross atomic charge
  VA   - Mayer's total valence
  BVA  - Mayer's bonded valence
  FA   - Mayer's free valence

  ATOM       NA         ZA         QA         VA         BVA        FA
  0 C      6.0313     6.0000    -0.0313     3.9615     3.9615    -0.0000
  1 C      6.0085     6.0000    -0.0085     3.8427     3.8427    -0.0000
  2 C      5.9598     6.0000     0.0402     3.8566     3.8566    -0.0000
  3 C      5.8846     6.0000     0.1154     3.8135     3.8135    -0.0000
  4 C      5.9614     6.0000     0.0386     3.8592     3.8592    -0.0000
  5 C      6.0103     6.0000    -0.0103     3.8439     3.8439    -0.0000
  6 C      5.9115     6.0000     0.0885     3.9091     3.9091     0.0000
  7 H      0.9720     1.0000     0.0280     0.9920     0.9920    -0.0000
  8 H      0.9837     1.0000     0.0163     0.9971     0.9971    -0.0000
  9 H      0.9618     1.0000     0.0382     0.9893     0.9893     0.0000
 10 H      1.0190     1.0000    -0.0190     0.9882     0.9882    -0.0000
 11 H      1.0071     1.0000    -0.0071     1.0050     1.0050    -0.0000
 12 H      1.0072     1.0000    -0.0072     1.0047     1.0047    -0.0000
 13 H      1.0198     1.0000    -0.0198     0.9886     0.9886     0.0000
 14 N      6.7686     7.0000     0.2314     3.9500     3.9500     0.0000
 15 O      8.2458     8.0000    -0.2458     1.9344     1.9344    -0.0000
 16 O      8.2474     8.0000    -0.2474     1.9333     1.9333     0.0000
 17 H      0.0000     1.0000     1.0000     0.0000     0.0000    -0.0000

  Mayer bond orders larger than 0.100000
B(  0-C ,  1-C ) :   1.3748 B(  0-C ,  5-C ) :   1.3591 B(  0-C ,  6-C ) :   1.0787 
B(  1-C ,  2-C ) :   1.3605 B(  1-C , 10-H ) :   0.9859 B(  2-C ,  3-C ) :   1.3797 
B(  2-C , 11-H ) :   0.9913 B(  3-C ,  4-C ) :   1.3702 B(  3-C , 14-N ) :   0.8586 
B(  4-C ,  5-C ) :   1.3746 B(  4-C , 12-H ) :   0.9918 B(  5-C , 13-H ) :   0.9886 
B(  6-C ,  7-H ) :   0.9518 B(  6-C ,  8-H ) :   0.9576 B(  6-C ,  9-H ) :   0.9451 
B( 14-N , 15-O ) :   1.5324 B( 14-N , 16-O ) :   1.5317 B( 15-O , 16-O ) :   0.2804 


-------
TIMINGS
-------

Total SCF time: 0 days 0 hours 3 min 18 sec 

Total time                  ....     198.574 sec
Sum of individual times     ....     197.780 sec  ( 99.6%)

Fock matrix formation       ....     189.383 sec  ( 95.4%)
  Split-RI-J                ....      15.516 sec  (  8.2% of F)
  Chain of spheres X        ....     140.256 sec  ( 74.1% of F)
  XC integration            ....      33.326 sec  ( 17.6% of F)
    Basis function eval.    ....      12.761 sec  ( 38.3% of XC)
    Density eval.           ....       9.110 sec  ( 27.3% of XC)
    XC-Functional eval.     ....       2.696 sec  (  8.1% of XC)
    XC-Potential eval.      ....       7.101 sec  ( 21.3% of XC)
Diagonalization             ....       0.138 sec  (  0.1%)
Density matrix formation    ....       0.019 sec  (  0.0%)
Population analysis         ....       0.052 sec  (  0.0%)
Initial guess               ....       1.763 sec  (  0.9%)
Orbital Transformation      ....       0.000 sec  (  0.0%)
Orbital Orthonormalization  ....       0.000 sec  (  0.0%)
DIIS solution               ....       0.326 sec  (  0.2%)
SOSCF solution              ....       0.067 sec  (  0.0%)
Grid generation             ....       6.032 sec  (  3.0%)

Maximum memory used throughout the entire SCF-calculation: 74.8 MB


-------------------------------------------------------------------------------
                          DFT DISPERSION CORRECTION                            
                                                                               
                                 DFTD4 V2.5                                    
-------------------------------------------------------------------------------
Gaussians B3LYP functional is recognized, using regular B3LYP params
Active option DFTDOPT                   ...         5   

Starting D4
-------------------------   ----------------
Dispersion correction           -0.026626625
-------------------------   ----------------


-------------------------   --------------------
FINAL SINGLE POINT ENERGY      -475.744804936313
-------------------------   --------------------

------------------------------------------------------------------------------
                         ORCA SCF GRADIENT CALCULATION
------------------------------------------------------------------------------

 ... reading COSX grid (gridx3)
Gradient of the Kohn-Sham DFT energy:
Kohn-Sham wavefunction type      ... RKS
Hartree-Fock exchange scaling    ...    0.200
Number of operators              ...    1
Number of atoms                  ...   18
Basis set dimensions             ...  180
Integral neglect threshold       ... 2.5e-11
Integral primitive cutoff        ... 2.5e-12
SHARK Integral package           ... ON

Nuc. rep. gradient       (SHARK) ... done (  0.0 sec)
HCore & Overlap gradient (SHARK) ... done (  0.4 sec)
RI-J gradient            (SHARK) ... done (  3.2 sec)
COSX-gradient                    ... done ( 25.0 sec)
Exchange-correlation gradient    ... done
Dispersion correction            ... Starting D4


------------------- 
Dispersion Gradient 
------------------- 
   1  :    0.000163666    0.000194256    0.000314447
   2  :   -0.000146918    0.000497877    0.000058580
   3  :   -0.000286289    0.000391947   -0.000158661
   4  :   -0.000142232   -0.000165897   -0.000269573
   5  :    0.000240980   -0.000445792    0.000073649
   6  :    0.000320361   -0.000279207    0.000291562
   7  :    0.000272417    0.000302846    0.000496960
   8  :    0.000052283    0.000048244    0.000151293
   9  :    0.000041984    0.000096572    0.000120636
  10  :    0.000113288    0.000087794    0.000103683
  11  :   -0.000078734    0.000197794    0.000000928
  12  :   -0.000134032    0.000146011   -0.000096072
  13  :    0.000085225   -0.000203385    0.000003136
  14  :    0.000127041   -0.000139365    0.000097289
  15  :   -0.000243116   -0.000282710   -0.000460047
  16  :    0.000000792   -0.000314132   -0.000411282
  17  :   -0.000387089   -0.000133262   -0.000317034
  18  :    0.000000373    0.000000409    0.000000508

  |G| =    0.001577651

done

------------------
CARTESIAN GRADIENT
------------------

   1   C   :    0.008470064    0.010098600    0.013966176
   2   C   :   -0.015962307    0.004967592   -0.017246510
   3   C   :    0.000698357    0.020162580    0.007272876
   4   C   :   -0.000091696   -0.003536792   -0.001877414
   5   C   :    0.009794011   -0.005066628    0.014987833
   6   C   :    0.001960413   -0.022908574   -0.010426068
   7   C   :   -0.010268575    0.000644466   -0.003519347
   8   H   :    0.001846680    0.001209375   -0.005353040
   9   H   :    0.003443407   -0.005974562   -0.002599194
  10   H   :   -0.003099506   -0.002746860   -0.000004745
  11   H   :    0.001494335   -0.007379026   -0.001544797
  12   H   :    0.004852588   -0.002247819    0.004134772
  13   H   :   -0.001456236    0.006317860    0.002249859
  14   H   :   -0.004606544    0.003503828   -0.004946009
  15   N   :   -0.001711177   -0.003128235   -0.004842739
  16   O   :   -0.000887585    0.007069771    0.004026075
  17   O   :    0.005621534   -0.000829870    0.005775317
  18   H   :   -0.000089723   -0.000101007   -0.000097390

Difference to translation invariance:
           :    0.0000080401    0.0000546986   -0.0000443439

Difference to rotation invariance:
           :   -0.0000900709   -0.0008507926   -0.0005285129

Norm of the cartesian gradient     ...    0.0548370115
RMS gradient                       ...    0.0074623721
MAX gradient                       ...    0.0229085742

-------
TIMINGS
-------

Total SCF gradient time            ...       40.419 sec

One electron gradient       ....       0.431 sec  (  1.1%)
RI-J Coulomb gradient       ....       3.166 sec  (  7.8%)
COSX gradient               ....      25.040 sec  ( 62.0%)
XC gradient                 ....      10.324 sec  ( 25.5%)

Maximum memory used throughout the entire SCFGRAD-calculation: 60.1 MB
------------------------------------------------------------------------------
                         ORCA GEOMETRY RELAXATION STEP
------------------------------------------------------------------------------

Reading the OPT-File                    .... done
Getting information on internals        .... done
Copying old internal coords+grads       .... done
Making the new internal coordinates     .... (new redundants).... done
Validating the new internal coordinates .... (new redundants).... done
Calculating the B-matrix                .... done
Calculating the G,G- and P matrices     .... done
Transforming gradient to internals      .... done
Projecting the internal gradient        .... done
Number of atoms                         ....  18
Number of internal coordinates          ....  95
Current Energy                          ....  -475.744804936 Eh
Current gradient norm                   ....     0.054837011 Eh/bohr
Maximum allowed component of the step   ....  0.300
Current trust radius                    ....  0.300
Evaluating the initial hessian          ....  (Almloef) done
Projecting the Hessian                  .... done
Forming the augmented Hessian           .... done
Diagonalizing the augmented Hessian     .... done
Last element of RFO vector              ....  0.966627450
Lowest eigenvalues of augmented Hessian:
 -0.005137547  0.000003400  0.014728533  0.016949864  0.019124130
Length of the computed step             ....  0.265030966
The final length of the internal step   ....  0.265030966
Converting the step to cartesian space:
 Initial RMS(Int)=    0.0271916034
Transforming coordinates:
 Iter   0:  RMS(Cart)=    0.0512392418 RMS(Int)=    0.6442689477
 Iter   1:  RMS(Cart)=    0.0024941012 RMS(Int)=    0.0017104992
 Iter   2:  RMS(Cart)=    0.0002332443 RMS(Int)=    0.0001302151
 Iter   3:  RMS(Cart)=    0.0000283475 RMS(Int)=    0.0000179076
 Iter   4:  RMS(Cart)=    0.0000024975 RMS(Int)=    0.0000014412
 Iter   5:  RMS(Cart)=    0.0000003038 RMS(Int)=    0.0000001871
 Iter   6:  RMS(Cart)=    0.0000000268 RMS(Int)=    0.0000000160
done
Storing new coordinates                 .... done

                                .--------------------.
          ----------------------|Geometry convergence|-------------------------
          Item                value                   Tolerance       Converged
          ---------------------------------------------------------------------
          RMS gradient        0.0045501663            0.0000300000      NO
          MAX gradient        0.0204780095            0.0001000000      NO
          RMS step            0.0271916034            0.0006000000      NO
          MAX step            0.1237673369            0.0010000000      NO
          ........................................................
          Max(Bonds)      0.0203      Max(Angles)    0.90
          Max(Dihed)        7.09      Max(Improp)    0.00
          ---------------------------------------------------------------------

The optimization has not yet converged - more geometry cycles are needed


    ---------------------------------------------------------------------------
                         Redundant Internal Coordinates
                            (Angstroem and degrees)

        Definition                    Value    dE/dq     Step     New-Value
    ----------------------------------------------------------------------------
     1. B(C   1,C   0)                1.4159  0.008703 -0.0081    1.4079   
     2. B(C   2,C   1)                1.3732 -0.020478  0.0162    1.3894   
     3. B(C   3,C   2)                1.4019  0.008157 -0.0071    1.3948   
     4. B(C   4,C   3)                1.4003  0.005072 -0.0044    1.3959   
     5. B(C   5,C   4)                1.3719 -0.019868  0.0156    1.3875   
     6. B(C   5,C   0)                1.4211  0.010921 -0.0103    1.4108   
     7. B(C   6,C   0)                1.4812 -0.015532  0.0182    1.4994   
     8. B(H   7,C   6)                1.0940 -0.005052  0.0074    1.1014   
     9. B(H   8,C   6)                1.0878 -0.007278  0.0105    1.0983   
    10. B(H   9,C   6)                1.0997 -0.003485  0.0052    1.1049   
    11. B(H  10,C   1)                1.0817 -0.007681  0.0108    1.0925   
    12. B(H  11,C   2)                1.0807 -0.006705  0.0094    1.0901   
    13. B(H  12,C   4)                1.0806 -0.006809  0.0095    1.0902   
    14. B(H  13,C   5)                1.0822 -0.007594  0.0107    1.0929   
    15. B(N  14,C   3)                1.4587 -0.006420  0.0077    1.4664   
    16. B(O  15,N  14)                1.2171 -0.006549  0.0039    1.2210   
    17. B(O  16,N  14)                1.2178 -0.005888  0.0037    1.2215   
    18. B(H  17,O  16)               13.4831  0.001659  0.0039   13.4870   
    19. B(H  17,O  15)               13.6568  0.001433 -0.0203   13.6365   
    20. B(H  17,N  14)               14.0693 -0.002913 -0.0010   14.0683   
    21. A(C   1,C   0,C   6)          121.00 -0.001672    0.23    121.24   
    22. A(C   5,C   0,C   6)          119.99 -0.002274    0.32    120.31   
    23. A(C   1,C   0,C   5)          119.00  0.003946   -0.56    118.44   
    24. A(C   2,C   1,H  10)          119.95  0.001075   -0.14    119.81   
    25. A(C   0,C   1,H  10)          119.21  0.001639   -0.23    118.98   
    26. A(C   0,C   1,C   2)          120.84 -0.002714    0.37    121.21   
    27. A(C   3,C   2,H  11)          119.80  0.001923   -0.28    119.52   
    28. A(C   1,C   2,H  11)          122.04  0.000465   -0.05    122.00   
    29. A(C   1,C   2,C   3)          118.16 -0.002387    0.33    118.49   
    30. A(C   2,C   3,C   4)          123.02  0.006367   -0.86    122.17   
    31. A(C   4,C   3,N  14)          118.55 -0.002999    0.40    118.95   
    32. A(C   2,C   3,N  14)          118.43 -0.003368    0.45    118.88   
    33. A(C   3,C   4,C   5)          118.04 -0.003077    0.42    118.46   
    34. A(C   5,C   4,H  12)          122.08  0.000820   -0.10    121.98   
    35. A(C   3,C   4,H  12)          119.88  0.002257   -0.33    119.56   
    36. A(C   0,C   5,C   4)          120.94 -0.002130    0.29    121.22   
    37. A(C   4,C   5,H  13)          119.95  0.000805   -0.10    119.85   
    38. A(C   0,C   5,H  13)          119.11  0.001325   -0.19    118.93   
    39. A(H   8,C   6,H   9)          107.98  0.001343   -0.26    107.71   
[...]
     12      -0.006781  -0.123803  -0.162969   0.163920  -0.115616  -0.000208
     13      -0.045048   0.036124   0.124014   0.083069   0.111808  -0.000180
     14      -0.034488  -0.126810  -0.122402   0.244868  -0.072929  -0.000306
     15       0.036160   0.031654   0.070810  -0.083294   0.041101   0.000497
     16       0.011350  -0.121667  -0.198175  -0.229973  -0.126877   0.000390
     17       0.050238  -0.033360  -0.031425  -0.234420  -0.025217   0.000794
     18      -0.005895  -0.018694   0.016594  -0.014120   0.008705  -0.038241
     19       0.027797  -0.023848  -0.021071  -0.019921  -0.011314  -0.020948
     20       0.021764  -0.037309   0.007515  -0.031842   0.003827  -0.030999
     21       0.529873  -0.027149   0.142886  -0.056527   0.059954   0.010910
     22      -0.064381   0.005940   0.073901   0.015940   0.036448  -0.312388
     23      -0.061357  -0.015998   0.068416  -0.002044   0.034534   0.429633
     24      -0.368672   0.000520  -0.149164   0.011739  -0.065635  -0.234542
     25      -0.104769  -0.023179  -0.077363  -0.021882  -0.035095   0.369825
     26      -0.358398   0.000661  -0.152779   0.031370  -0.071243   0.095860
     27       0.188307  -0.019492   0.049628  -0.019406   0.020192   0.671671
     28      -0.425816  -0.005840  -0.065943   0.010800  -0.021949   0.183938
     29       0.285574  -0.022612   0.094233  -0.040135   0.040878  -0.169588
     30       0.150076   0.260280  -0.104155   0.265085  -0.094628   0.001871
     31      -0.046944   0.081062  -0.142167  -0.066340  -0.080815  -0.007479
     32       0.156173   0.356395  -0.207662   0.274802  -0.160566  -0.002577
     33       0.041365   0.058074  -0.116027   0.051858  -0.117665  -0.000533
     34      -0.107137   0.353709  -0.103266  -0.275340  -0.053550   0.000148
     35      -0.011945   0.277005  -0.199276  -0.101073  -0.171854  -0.000713
     36       0.083794   0.278292   0.065308  -0.214896   0.045233   0.000112
     37      -0.052355   0.054196   0.143697   0.091046   0.146872  -0.000938
     38       0.070127   0.364261   0.162002  -0.204707   0.140285  -0.000559
     39       0.031467   0.084850   0.110184  -0.038042   0.066865  -0.005796
     40      -0.144993   0.351214   0.128376   0.366613   0.112786   0.002972
     41      -0.050661   0.305204   0.207069   0.166576   0.146184  -0.005469
     42      -0.007890   0.006676   0.182970  -0.020109  -0.355967   0.000018
     43       0.005704   0.005672  -0.261491  -0.017611   0.505414   0.000001
     44      -0.006453   0.011234   0.069022  -0.034488  -0.135056   0.000005
     45       0.001912   0.004372  -0.049927  -0.005709   0.094590  -0.000016
     46      -0.010219  -0.020589   0.163624   0.024456  -0.251606   0.000001
     47      -0.003548  -0.006609   0.034348   0.007294  -0.031676  -0.000016
     48       0.011645  -0.017208  -0.119015   0.021057   0.184742  -0.000004
     49      -0.005452   0.008310   0.078220  -0.011496  -0.145023  -0.000016
     50       0.010874  -0.015833  -0.097758   0.018659   0.137924  -0.000012
     51       0.000009  -0.000110   0.000307  -0.000113  -0.000564   0.000003
     52      -0.000002  -0.000094  -0.000398  -0.000081   0.000764   0.000004
     53      -0.000002  -0.000105   0.000127  -0.000112  -0.000249   0.000005
                 48         49         50         51         52         53    
      0      -0.000558   0.000864  -0.000683   0.002354  -0.000509   0.000459
      1      -0.000488  -0.000308   0.003229  -0.000608   0.000852   0.000285
      2      -0.000496   0.000779   0.001114   0.002502  -0.000106   0.000727
      3       0.000018  -0.000988   0.001362  -0.025552   0.000334  -0.001380
      4      -0.000654   0.002766  -0.005576   0.080681  -0.005838   0.010384
      5       0.000028   0.000752  -0.001661   0.017284  -0.003055   0.004496
      6      -0.000010   0.000021   0.000311   0.006278   0.035439  -0.049336
      7      -0.000083  -0.000172  -0.000171  -0.006601  -0.021704   0.030993
      8      -0.000062  -0.000014   0.000274   0.003584   0.029535  -0.040655
      9       0.000006  -0.000127  -0.000195   0.000244  -0.002580  -0.000691
     10       0.000046   0.000078   0.000372  -0.000215   0.003183  -0.001926
     11       0.000051  -0.000104  -0.000012   0.000168  -0.001216  -0.001961
     12       0.000011   0.000240  -0.004332  -0.000767   0.019384   0.014371
     13       0.000018   0.000005   0.007890   0.001653  -0.066500  -0.047851
     14      -0.000077   0.000238  -0.000592   0.000051  -0.015699  -0.010789
     15      -0.000274  -0.000854   0.059740   0.004037   0.006428   0.005719
     16       0.000379   0.000605  -0.039004  -0.003172  -0.001409  -0.001934
     17      -0.000561  -0.000941   0.048882   0.003001   0.006891   0.005731
     18      -0.059400   0.049379   0.000752  -0.001578   0.000036  -0.000075
     19      -0.028286  -0.078197  -0.001399   0.002361  -0.000075   0.000047
     20       0.063602   0.013149   0.000896   0.000326   0.000012   0.000020
     21      -0.037739  -0.009007  -0.000809  -0.000147   0.000020  -0.000103
     22       0.404620   0.275872   0.008392  -0.004162   0.000044  -0.000131
     23      -0.560383  -0.397437  -0.015010   0.003496  -0.000179  -0.000599
     24       0.126505  -0.435313  -0.005243   0.014769  -0.000161   0.000301
     25      -0.229145   0.709055   0.007116  -0.027052   0.000148  -0.000988
     26      -0.048465   0.190613   0.000754  -0.009063  -0.000054  -0.000597
     27       0.626685  -0.149199  -0.003785   0.002733   0.000036  -0.000016
     28       0.168269  -0.057155  -0.002402   0.000636  -0.000135  -0.000232
     29      -0.143007   0.042198   0.000246  -0.001783  -0.000007  -0.000348
     30      -0.001755   0.008250  -0.019839   0.288692  -0.016788   0.030579
     31       0.005903  -0.029212   0.064813  -0.920014   0.056907  -0.102092
     32       0.001622  -0.008550   0.014574  -0.200563   0.013663  -0.024001
     33       0.000395  -0.002226  -0.003143  -0.088854  -0.401693   0.556876
     34      -0.000126   0.001314   0.001928   0.057638   0.249247  -0.345900
     35       0.000339  -0.001969  -0.002618  -0.072207  -0.332797   0.461153
     36      -0.000124  -0.000503   0.034710   0.006497  -0.221276  -0.158639
     37       0.000563   0.001503  -0.111998  -0.021284   0.752899   0.539104
     38       0.000251   0.000310  -0.024006  -0.004677   0.175331   0.125304
     39       0.003773   0.009700  -0.681184  -0.045534  -0.060723  -0.054805
     40      -0.003467  -0.005524   0.444822   0.030463   0.037672   0.034410
     41       0.005187   0.009435  -0.557639  -0.036990  -0.050879  -0.045692
     42      -0.000050   0.000030  -0.000106   0.000042   0.000926  -0.000428
     43      -0.000040   0.000037   0.000081  -0.000141  -0.001424  -0.000097
     44      -0.000027   0.000054  -0.000072  -0.000022   0.000280  -0.000565
     45       0.000003  -0.000002   0.000092  -0.000000  -0.000486  -0.000204
     46       0.000021  -0.000012  -0.000030   0.000051   0.000299   0.000249
     47       0.000006  -0.000008   0.000093   0.000027  -0.000408  -0.000100
     48       0.000020  -0.000026   0.000042  -0.000010  -0.000126   0.000227
     49      -0.000000   0.000011  -0.000021   0.000125   0.000532  -0.000480
     50       0.000010  -0.000025   0.000034   0.000060   0.000160  -0.000011
     51      -0.000004   0.000005  -0.000001  -0.000006  -0.000008  -0.000006
     52      -0.000003  -0.000001  -0.000005  -0.000002   0.000007  -0.000007
     53      -0.000001   0.000005  -0.000003  -0.000005  -0.000003  -0.000005


-----------
IR SPECTRUM
-----------

 Mode   freq       eps      Int      T**2         TX        TY        TZ
       cm**-1   L/(mol*cm) km/mol    a.u.
----------------------------------------------------------------------------
  7:      2.23   0.000000    0.00  0.000000  ( 0.000000  0.000000  0.000000)
  8:     16.03   0.144204  728.75  2.806747  ( 0.977817 -1.315632  0.346029)
  9:     16.44   0.143922  727.32  2.732331  (-0.968168 -0.386733  1.282739)
 10:     59.93   0.000001    0.01  0.000007  ( 0.001635 -0.000416 -0.002124)
 11:    110.48   0.000176    0.89  0.000498  (-0.014459 -0.007877  0.015065)
 12:    223.99   0.000184    0.93  0.000256  (-0.008684  0.012969 -0.003532)
 13:    286.21   0.000763    3.86  0.000832  (-0.020726 -0.009054  0.017915)
 14:    361.55   0.000084    0.43  0.000073  (-0.001965  0.007983  0.002268)
 15:    366.84   0.000264    1.34  0.000225  (-0.007810 -0.005039 -0.011762)
 16:    424.94   0.000001    0.01  0.000001  ( 0.000935 -0.000059 -0.000352)
 17:    488.78   0.001260    6.37  0.000805  ( 0.020805  0.010827 -0.015956)
 18:    541.37   0.000276    1.39  0.000159  (-0.007724  0.009417 -0.003267)
 19:    632.48   0.000846    4.27  0.000417  ( 0.008093  0.008901  0.016511)
 20:    646.27   0.000096    0.48  0.000046  ( 0.003377 -0.005890  0.000383)
 21:    709.41   0.001237    6.25  0.000544  (-0.016967 -0.008461  0.013591)
 22:    756.03   0.006014   30.39  0.002482  (-0.035552 -0.017285  0.030326)
 23:    807.03   0.001277    6.45  0.000494  ( 0.008078  0.011036  0.017510)
 24:    858.65   0.000323    1.63  0.000118  (-0.006779 -0.003228  0.007819)
 25:    860.67   0.002542   12.85  0.000922  (-0.019893 -0.008480  0.021306)
 26:    889.49   0.007947   40.16  0.002788  ( 0.022329  0.026004  0.040168)
 27:    999.78   0.000587    2.96  0.000183  ( 0.005233  0.009187  0.008445)
 28:   1003.35   0.000438    2.22  0.000136  (-0.009541 -0.005192  0.004287)
 29:   1014.20   0.000003    0.02  0.000001  (-0.000848  0.000258  0.000501)
 30:   1028.06   0.000678    3.42  0.000206  (-0.004599 -0.007180 -0.011532)
 31:   1052.86   0.001749    8.84  0.000519  (-0.018719 -0.012962 -0.000335)
 32:   1121.27   0.002135   10.79  0.000594  (-0.015675  0.016205 -0.009261)
 33:   1131.77   0.009825   49.65  0.002709  (-0.020262 -0.026312 -0.040076)
 34:   1193.84   0.000040    0.20  0.000010  (-0.001602 -0.001268 -0.002501)
 35:   1239.39   0.000699    3.53  0.000176  ( 0.006402  0.007024  0.009257)
 36:   1310.34   0.000142    0.72  0.000034  (-0.004014  0.002251 -0.003562)
 37:   1380.40   0.002111   10.67  0.000477  (-0.015043  0.012151 -0.010165)
 38:   1397.07   0.000055    0.28  0.000012  (-0.001524 -0.001745  0.002616)
 39:   1422.36   0.071564  361.65  0.015701  ( 0.051214  0.061975  0.096111)
 40:   1435.65   0.000254    1.28  0.000055  (-0.005864 -0.001369 -0.004343)
 41:   1458.45   0.001469    7.42  0.000314  ( 0.010068  0.007935 -0.012247)
 42:   1472.10   0.001485    7.51  0.000315  ( 0.011255 -0.013663  0.001217)
 43:   1529.15   0.003260   16.47  0.000665  ( 0.011393  0.011958  0.019810)
 44:   1634.37   0.014307   72.30  0.002732  ( 0.029219 -0.041941  0.010907)
 45:   1662.38   0.007060   35.68  0.001325  ( 0.014632  0.018605  0.027659)
 46:   1691.74   0.030935  156.33  0.005706  (-0.042628  0.060116 -0.016596)
 47:   3031.09   0.002082   10.52  0.000214  (-0.007380 -0.007257 -0.010353)
 48:   3101.38   0.001538    7.77  0.000155  (-0.005884 -0.001635  0.010837)
 49:   3134.20   0.001653    8.36  0.000165  ( 0.004801 -0.011848 -0.001099)
 50:   3183.64   0.001249    6.31  0.000122  ( 0.007626 -0.004739  0.006470)
 51:   3187.43   0.001209    6.11  0.000118  (-0.001877  0.010012  0.003819)
 52:   3235.37   0.000305    1.54  0.000029  (-0.002527  0.004792 -0.000194)
 53:   3235.51   0.000536    2.71  0.000052  ( 0.003391  0.002740  0.005720)

* The epsilon (eps) is given for a Dirac delta lineshape.
** The dipole moment derivative (T) already includes vibrational overlap.

The first frequency considered to be a vibration is 7
The total number of vibrations considered is 47


--------------------------
THERMOCHEMISTRY AT 298.15K
--------------------------

Temperature         ... 298.15 K
Pressure            ... 1.00 atm
Total Mass          ... 138.15 AMU

Throughout the following assumptions are being made:
  (1) The electronic state is orbitally nondegenerate
  (2) There are no thermally accessible electronically excited states
  (3) Hindered rotations indicated by low frequency modes are not
      treated as such but are treated as vibrations and this may
      cause some error
  (4) All equations used are the standard statistical mechanics
      equations for an ideal gas
  (5) All vibrations are strictly harmonic

freq.       2.23  E(vib)   ...       0.59 
freq.      16.03  E(vib)   ...       0.57 
freq.      16.44  E(vib)   ...       0.57 
freq.      59.93  E(vib)   ...       0.51 
freq.     110.48  E(vib)   ...       0.45 
freq.     223.99  E(vib)   ...       0.33 
freq.     286.21  E(vib)   ...       0.27 
freq.     361.55  E(vib)   ...       0.22 
freq.     366.84  E(vib)   ...       0.22 
freq.     424.94  E(vib)   ...       0.18 
freq.     488.78  E(vib)   ...       0.15 
freq.     541.37  E(vib)   ...       0.12 
freq.     632.48  E(vib)   ...       0.09 
freq.     646.27  E(vib)   ...       0.09 
freq.     709.41  E(vib)   ...       0.07 
freq.     756.03  E(vib)   ...       0.06 
freq.     807.03  E(vib)   ...       0.05 
freq.     858.65  E(vib)   ...       0.04 
freq.     860.67  E(vib)   ...       0.04 
freq.     889.49  E(vib)   ...       0.04 
freq.     999.78  E(vib)   ...       0.02 
freq.    1003.35  E(vib)   ...       0.02 
freq.    1014.20  E(vib)   ...       0.02 
freq.    1028.06  E(vib)   ...       0.02 
freq.    1052.86  E(vib)   ...       0.02 
freq.    1121.27  E(vib)   ...       0.01 
freq.    1131.77  E(vib)   ...       0.01 
freq.    1193.84  E(vib)   ...       0.01 
freq.    1239.39  E(vib)   ...       0.01 
freq.    1310.34  E(vib)   ...       0.01 
freq.    1380.40  E(vib)   ...       0.01 
freq.    1397.07  E(vib)   ...       0.00 
freq.    1422.36  E(vib)   ...       0.00 
freq.    1435.65  E(vib)   ...       0.00 
freq.    1458.45  E(vib)   ...       0.00 
freq.    1472.10  E(vib)   ...       0.00 
freq.    1529.15  E(vib)   ...       0.00 
freq.    1634.37  E(vib)   ...       0.00 
freq.    1662.38  E(vib)   ...       0.00 
freq.    1691.74  E(vib)   ...       0.00 
freq.    3031.09  E(vib)   ...       0.00 
freq.    3101.38  E(vib)   ...       0.00 
freq.    3134.20  E(vib)   ...       0.00 
freq.    3183.64  E(vib)   ...       0.00 
freq.    3187.43  E(vib)   ...       0.00 
freq.    3235.37  E(vib)   ...       0.00 
freq.    3235.51  E(vib)   ...       0.00 

------------
INNER ENERGY
------------

The inner energy is: U= E(el) + E(ZPE) + E(vib) + E(rot) + E(trans)
    E(el)   - is the total energy from the electronic structure calculation
              = E(kin-el) + E(nuc-el) + E(el-el) + E(nuc-nuc)
    E(ZPE)  - the the zero temperature vibrational energy from the frequency calculation
    E(vib)  - the the finite temperature correction to E(ZPE) due to population
              of excited vibrational states
    E(rot)  - is the rotational thermal energy
    E(trans)- is the translational thermal energy

Summary of contributions to the inner energy U:
Electronic energy                ...   -475.75110945 Eh
Zero point energy                ...      0.13064372 Eh      81.98 kcal/mol
Thermal vibrational correction   ...      0.00769970 Eh       4.83 kcal/mol
Thermal rotational correction    ...      0.00141627 Eh       0.89 kcal/mol
Thermal translational correction ...      0.00141627 Eh       0.89 kcal/mol
-----------------------------------------------------------------------
Total thermal energy                   -475.60993349 Eh


Summary of corrections to the electronic energy:
(perhaps to be used in another calculation)
Total thermal correction                  0.01053224 Eh       6.61 kcal/mol
Non-thermal (ZPE) correction              0.13064372 Eh      81.98 kcal/mol
-----------------------------------------------------------------------
Total correction                          0.14117596 Eh      88.59 kcal/mol


--------
ENTHALPY
--------

The enthalpy is H = U + kB*T
                kB is Boltzmann's constant
Total free energy                 ...   -475.60993349 Eh 
Thermal Enthalpy correction       ...      0.00094421 Eh       0.59 kcal/mol
-----------------------------------------------------------------------
Total Enthalpy                    ...   -475.60898928 Eh


Note: Only C1 symmetry has been detected, increase convergence thresholds 
      if your molecule has a higher symmetry. Symmetry factor of 1.0 is   
      used for the rotational entropy correction. 
 

Note: Rotational entropy computed according to Herzberg 
Infrared and Raman Spectra, Chapter V,1, Van Nostrand Reinhold, 1945 
Point Group:  C1, Symmetry Number:   1  
Rotational constants in cm-1:     0.125531     0.019468     0.017055 

Vibrational entropy computed according to the QRRHO of S. Grimme
Chem.Eur.J. 2012 18 9955


-------
ENTROPY
-------

The entropy contributions are T*S = T*(S(el)+S(vib)+S(rot)+S(trans))
     S(el)   - electronic entropy
     S(vib)  - vibrational entropy
     S(rot)  - rotational entropy
     S(trans)- translational entropy
The entropies will be listed as multiplied by the temperature to get
units of energy

Electronic entropy                ...      0.00000000 Eh      0.00 kcal/mol
Vibrational entropy               ...      0.01570289 Eh      9.85 kcal/mol
Rotational entropy                ...      0.01427207 Eh      8.96 kcal/mol
Translational entropy             ...      0.01932890 Eh     12.13 kcal/mol
-----------------------------------------------------------------------
Final entropy term                ...      0.04930385 Eh     30.94 kcal/mol

In case the symmetry of your molecule has not been determined correctly
or in case you have a reason to use a different symmetry number we print 
out the resulting rotational entropy values for sn=1,12 :
 --------------------------------------------------------
|  sn= 1 | S(rot)=       0.01427207 Eh      8.96 kcal/mol|
|  sn= 2 | S(rot)=       0.01361761 Eh      8.55 kcal/mol|
|  sn= 3 | S(rot)=       0.01323478 Eh      8.30 kcal/mol|
|  sn= 4 | S(rot)=       0.01296315 Eh      8.13 kcal/mol|
|  sn= 5 | S(rot)=       0.01275247 Eh      8.00 kcal/mol|
|  sn= 6 | S(rot)=       0.01258032 Eh      7.89 kcal/mol|
|  sn= 7 | S(rot)=       0.01243478 Eh      7.80 kcal/mol|
|  sn= 8 | S(rot)=       0.01230870 Eh      7.72 kcal/mol|
|  sn= 9 | S(rot)=       0.01219749 Eh      7.65 kcal/mol|
|  sn=10 | S(rot)=       0.01209801 Eh      7.59 kcal/mol|
|  sn=11 | S(rot)=       0.01200802 Eh      7.54 kcal/mol|
|  sn=12 | S(rot)=       0.01192587 Eh      7.48 kcal/mol|
 --------------------------------------------------------


-------------------
GIBBS FREE ENERGY
-------------------

The Gibbs free energy is G = H - T*S

Total enthalpy                    ...   -475.60898928 Eh 
Total entropy correction          ...     -0.04930385 Eh    -30.94 kcal/mol
-----------------------------------------------------------------------
Final Gibbs free energy         ...   -475.65829313 Eh

For completeness - the Gibbs free energy minus the electronic energy
G-E(el)                           ...      0.09281632 Eh     58.24 kcal/mol


Timings for individual modules:

Sum of individual times         ...     3800.544 sec (=  63.342 min)
GTO integral calculation        ...        9.439 sec (=   0.157 min)   0.2 %
SCF iterations                  ...     2160.923 sec (=  36.015 min)  56.9 %
SCF Gradient evaluation         ...      603.793 sec (=  10.063 min)  15.9 %
Geometry relaxation             ...        2.337 sec (=   0.039 min)   0.1 %
Analytical frequency calculation...     1024.052 sec (=  17.068 min)  26.9 %
                             ****ORCA TERMINATED NORMALLY****
TOTAL RUN TIME: 0 days 1 hours 3 minutes 29 seconds 785 msec
