
                                 *****************
                                 * O   R   C   A *
                                 *****************

                                            #,                                       
                                            ###                                      
                                            ####                                     
                                            #####                                    
                                            ######                                   
                                           ########,                                 
                                     ,,################,,,,,                         
                               ,,#################################,,                 
                          ,,##########################################,,             
                       ,#########################################, ''#####,          
                    ,#############################################,,   '####,        
                  ,##################################################,,,,####,       
                ,###########''''           ''''###############################       
              ,#####''   ,,,,##########,,,,          '''####'''          '####       
            ,##' ,,,,###########################,,,                        '##       
           ' ,,###''''                  '''############,,,                           
         ,,##''                                '''############,,,,        ,,,,,,###''
      ,#''                                            '''#######################'''  
     '                                                          ''''####''''         
             ,#######,   #######,   ,#######,      ##                                
            ,#'     '#,  ##    ##  ,#'     '#,    #''#        ######   ,####,        
            ##       ##  ##   ,#'  ##            #'  '#       #        #'  '#        
            ##       ##  #######   ##           ,######,      #####,   #    #        
            '#,     ,#'  ##    ##  '#,     ,#' ,#      #,         ##   #,  ,#        
             '#######'   ##     ##  '#######'  #'      '#     #####' # '####'        



                  #######################################################
                  #                        -***-                        #
                  #          Department of theory and spectroscopy      #
                  #    Directorship and core code : Frank Neese         #
                  #        Max Planck Institute fuer Kohlenforschung    #
                  #                Kaiser Wilhelm Platz 1               #
                  #                 D-45470 Muelheim/Ruhr               #
                  #                      Germany                        #
                  #                                                     #
                  #                  All rights reserved                #
                  #                        -***-                        #
                  #######################################################



                         Program Version 5.0.4 -  RELEASE  -

 With contributions from (in alphabetic order):
   Daniel Aravena         : Magnetic Suceptibility
   Michael Atanasov       : Ab Initio Ligand Field Theory (pilot matlab implementation)
   Alexander A. Auer      : GIAO ZORA, VPT2 properties, NMR spectrum
   Ute Becker             : Parallelization
   Giovanni Bistoni       : ED, misc. LED, open-shell LED, HFLD
   Martin Brehm           : Molecular dynamics
   Dmytro Bykov           : SCF Hessian
   Vijay G. Chilkuri      : MRCI spin determinant printing, contributions to CSF-ICE
   Dipayan Datta          : RHF DLPNO-CCSD density
   Achintya Kumar Dutta   : EOM-CC, STEOM-CC
   Dmitry Ganyushin       : Spin-Orbit,Spin-Spin,Magnetic field MRCI
   Miquel Garcia          : C-PCM and meta-GGA Hessian, CC/C-PCM, Gaussian charge scheme
   Yang Guo               : DLPNO-NEVPT2, F12-NEVPT2, CIM, IAO-localization
   Andreas Hansen         : Spin unrestricted coupled pair/coupled cluster methods
   Benjamin Helmich-Paris : MC-RPA, TRAH-SCF, COSX integrals
   Lee Huntington         : MR-EOM, pCC
   Robert Izsak           : Overlap fitted RIJCOSX, COSX-SCS-MP3, EOM
   Marcus Kettner         : VPT2
   Christian Kollmar      : KDIIS, OOCD, Brueckner-CCSD(T), CCSD density, CASPT2, CASPT2-K
   Simone Kossmann        : Meta GGA functionals, TD-DFT gradient, OOMP2, MP2 Hessian
   Martin Krupicka        : Initial AUTO-CI
   Lucas Lang             : DCDCAS
   Marvin Lechner         : AUTO-CI (C++ implementation), FIC-MRCC
   Dagmar Lenk            : GEPOL surface, SMD
   Dimitrios Liakos       : Extrapolation schemes; Compound Job, initial MDCI parallelization
   Dimitrios Manganas     : Further ROCIS development; embedding schemes
   Dimitrios Pantazis     : SARC Basis sets
   Anastasios Papadopoulos: AUTO-CI, single reference methods and gradients
   Taras Petrenko         : DFT Hessian,TD-DFT gradient, ASA, ECA, R-Raman, ABS, FL, XAS/XES, NRVS
   Peter Pinski           : DLPNO-MP2, DLPNO-MP2 Gradient
   Christoph Reimann      : Effective Core Potentials
   Marius Retegan         : Local ZFS, SOC
   Christoph Riplinger    : Optimizer, TS searches, QM/MM, DLPNO-CCSD(T), (RO)-DLPNO pert. Triples
   Tobias Risthaus        : Range-separated hybrids, TD-DFT gradient, RPA, STAB
   Michael Roemelt        : Original ROCIS implementation
   Masaaki Saitow         : Open-shell DLPNO-CCSD energy and density
   Barbara Sandhoefer     : DKH picture change effects
   Avijit Sen             : IP-ROCIS
   Kantharuban Sivalingam : CASSCF convergence, NEVPT2, FIC-MRCI
   Bernardo de Souza      : ESD, SOC TD-DFT
   Georgi Stoychev        : AutoAux, RI-MP2 NMR, DLPNO-MP2 response
   Willem Van den Heuvel  : Paramagnetic NMR
   Boris Wezisla          : Elementary symmetry handling
   Frank Wennmohs         : Technical directorship


 We gratefully acknowledge several colleagues who have allowed us to
 interface, adapt or use parts of their codes:
   Stefan Grimme, W. Hujo, H. Kruse, P. Pracht,  : VdW corrections, initial TS optimization,
                  C. Bannwarth, S. Ehlert          DFT functionals, gCP, sTDA/sTD-DF
   Ed Valeev, F. Pavosevic, A. Kumar             : LibInt (2-el integral package), F12 methods
   Garnet Chan, S. Sharma, J. Yang, R. Olivares  : DMRG
   Ulf Ekstrom                                   : XCFun DFT Library
   Mihaly Kallay                                 : mrcc  (arbitrary order and MRCC methods)
   Jiri Pittner, Ondrej Demel                    : Mk-CCSD
   Frank Weinhold                                : gennbo (NPA and NBO analysis)
   Christopher J. Cramer and Donald G. Truhlar   : smd solvation model
   Lars Goerigk                                  : TD-DFT with DH, B97 family of functionals
   V. Asgeirsson, H. Jonsson                     : NEB implementation
   FAccTs GmbH                                   : IRC, NEB, NEB-TS, DLPNO-Multilevel, CI-OPT
                                                   MM, QMMM, 2- and 3-layer-ONIOM, Crystal-QMMM,
                                                   LR-CPCM, SF, NACMEs, symmetry and pop. for TD-DFT,
                                                   nearIR, NL-DFT gradient (VV10), updates on ESD,
                                                   ML-optimized integration grids
   S Lehtola, MJT Oliveira, MAL Marques          : LibXC Library
   Liviu Ungur et al                             : ANISO software


 Your calculation uses the libint2 library for the computation of 2-el integrals
 For citations please refer to: http://libint.valeyev.net

 Your ORCA version has been built with support for libXC version: 5.1.0
 For citations please refer to: https://tddft.org/programs/libxc/

 This ORCA versions uses:
   CBLAS   interface :  Fast vector & matrix operations
   LAPACKE interface :  Fast linear algebra routines
   Shared memory     :  Shared parallel matrices


Your calculation utilizes the atom-pairwise dispersion correction
based on tight binding partial charges (D4)
Cite in your paper:
E.Caldeweyher, C.Bannwarth, S.Grimme, J.Chem.Phys., (2017), 147, 034112.
E.Caldeweyher, S.Ehlert, A.Hansen, H.Neugebauer, S.Grimme, J.Chem.Phys., (2018), in progress.
   

================================================================================

----- Orbital basis set information -----
Your calculation utilizes the basis: def2-SVP
   F. Weigend and R. Ahlrichs, Phys. Chem. Chem. Phys. 7, 3297 (2005).

----- AuxJ basis set information -----
Your calculation utilizes the auxiliary basis: def2/J
   F. Weigend, Phys. Chem. Chem. Phys. 8, 1057 (2006).

================================================================================
                                        WARNINGS
                       Please study these warnings very carefully!
================================================================================


WARNING: Geometry Optimization
  ===> : Switching off AutoStart
         For restart on a previous wavefunction, please use MOREAD

INFO   : the flag for use of the SHARK integral package has been found!

================================================================================
                                       INPUT FILE
================================================================================
NAME = opt.inp
|  1> !B3LYP DEF2-SVP OPT FREQ D4 SOSCf
|  2> 
|  3> %geom
|  4> maxIter 1000
|  5> end
|  6> 
|  7> * xyz 1 1
|  8>    C       -2.84933        1.38692        0.34220
|  9>    C       -2.98115        0.81950       -0.86955
| 10>    C       -1.87145        0.01777       -1.44220
| 11>    C       -0.77009       -0.29539       -0.70850
| 12>    C       -0.59616        0.45114        0.58038
| 13>    C       -1.57840        1.21716        1.08552
| 14>    H       -3.88844        0.95927       -1.44961
| 15>    H       -1.98258       -0.33390       -2.46402
| 16>    H       -1.08773       -1.25827       -0.31234
| 17>    H        0.33020        0.35705        1.13926
| 18>    H       -1.43277        1.72427        2.03446
| 19>    N       -3.89674        2.17070        0.89234
| 20>    H       -4.78124        2.30787        0.38112
| 21>    H       -3.78580        2.61404        1.81568
| 22>    N        0.40770       -0.71429       -1.41548
| 23>    O        0.33864       -1.11812       -2.53853
| 24>    O        1.46653       -0.72502       -0.86261
| 25> **                         ****END OF INPUT****
================================================================================

                       *****************************
                       * Geometry Optimization Run *
                       *****************************

Geometry optimization settings:
Update method            Update   .... BFGS
Choice of coordinates    CoordSys .... Z-matrix Internals
Initial Hessian          InHess   .... Almoef's Model

Convergence Tolerances:
Energy Change            TolE     ....  5.0000e-06 Eh
Max. Gradient            TolMAXG  ....  3.0000e-04 Eh/bohr
RMS Gradient             TolRMSG  ....  1.0000e-04 Eh/bohr
Max. Displacement        TolMAXD  ....  4.0000e-03 bohr
RMS Displacement         TolRMSD  ....  2.0000e-03 bohr
Strict Convergence                ....  False
------------------------------------------------------------------------------
                        ORCA OPTIMIZATION COORDINATE SETUP
------------------------------------------------------------------------------

The optimization will be done in new redundant internal coordinates
Making redundant internal coordinates   ...  (new redundants) done
Evaluating the initial hessian          ...  (Almloef) done
Evaluating the coordinates              ...  done
Calculating the B-matrix                .... done
Calculating the G-matrix                .... done
Diagonalizing the G-matrix              .... done
The first mode is                       ....   37
The number of degrees of freedom        ....   45

    -----------------------------------------------------------------
                    Redundant Internal Coordinates


    -----------------------------------------------------------------
         Definition                    Initial Value    Approx d2E/dq
    -----------------------------------------------------------------
      1. B(C   1,C   0)                  1.3445         0.738467   
      2. B(C   2,C   1)                  1.4840         0.442419   
      3. B(C   3,C   2)                  1.3599         0.697801   
      4. B(C   4,C   3)                  1.4996         0.417729   
      5. B(C   5,C   4)                  1.3442         0.739407   
      6. B(C   5,C   0)                  1.4821         0.445458   
      7. B(H   6,C   1)                  1.0859         0.365564   
      8. B(H   7,C   2)                  1.0863         0.364972   
      9. B(H   8,C   3)                  1.0886         0.362002   
     10. B(H   9,C   4)                  1.0860         0.365464   
     11. B(H  10,C   5)                  1.0858         0.365765   
     12. B(N  11,C   0)                  1.4192         0.502739   
     13. B(H  12,N  11)                  1.0308         0.400909   
     14. B(H  13,N  11)                  1.0302         0.401687   
     15. B(N  14,C   3)                  1.4361         0.472355   
     16. B(O  15,N  14)                  1.1954         1.024265   
     17. B(O  16,N  14)                  1.1945         1.027715   
     18. A(C   5,C   0,N  11)          120.1145         0.391836   
     19. A(C   1,C   0,C   5)          119.1928         0.422113   
     20. A(C   1,C   0,N  11)          120.6701         0.428542   
     21. A(C   0,C   1,H   6)          120.5991         0.364500   
     22. A(C   2,C   1,H   6)          119.2226         0.334337   
     23. A(C   0,C   1,C   2)          120.1644         0.421597   
     24. A(C   3,C   2,H   7)          121.0493         0.360891   
     25. A(C   1,C   2,H   7)          117.4756         0.334247   
     26. A(C   1,C   2,C   3)          121.4554         0.417360   
     27. A(C   4,C   3,H   8)           99.2879         0.330633   
     28. A(C   2,C   3,C   4)          116.2957         0.413120   
     29. A(C   2,C   3,H   8)           99.4228         0.360389   
     30. A(H   8,C   3,N  14)           99.2332         0.335404   
     31. A(C   2,C   3,N  14)          117.7594         0.419520   
     32. A(C   4,C   3,N  14)          118.2419         0.383281   
     33. A(C   5,C   4,H   9)          118.6409         0.364563   
     34. A(C   3,C   4,H   9)          119.8762         0.331154   
     35. A(C   3,C   4,C   5)          121.4630         0.417397   
     36. A(C   0,C   5,H  10)          119.9906         0.334748   
     37. A(C   0,C   5,C   4)          120.2273         0.422209   
     38. A(C   4,C   5,H  10)          119.7760         0.364614   
     39. A(H  12,N  11,H  13)          118.6610         0.296071   
     40. A(C   0,N  11,H  13)          120.3717         0.341878   
     41. A(C   0,N  11,H  12)          120.9672         0.341767   
     42. A(O  15,N  14,O  16)          118.8801         0.508206   
     43. A(C   3,N  14,O  16)          120.1139         0.443818   
     44. A(C   3,N  14,O  15)          120.9055         0.443548   
     45. D(C   2,C   1,C   0,C   5)      0.8741         0.038776   
     46. D(H   6,C   1,C   0,C   5)   -177.7604         0.038776   
     47. D(H   6,C   1,C   0,N  11)      0.5128         0.038776   
     48. D(C   2,C   1,C   0,N  11)    179.1473         0.038776   
     49. D(H   7,C   2,C   1,H   6)      4.8725         0.013352   
     50. D(H   7,C   2,C   1,C   0)   -173.7807         0.013352   
     51. D(C   3,C   2,C   1,H   6)   -173.5300         0.013352   
     52. D(C   3,C   2,C   1,C   0)      7.8168         0.013352   
     53. D(N  14,C   3,C   2,H   7)     19.6896         0.037286   
     54. D(H   8,C   3,C   2,H   7)    -86.0431         0.037286   
     55. D(H   8,C   3,C   2,C   1)     92.3025         0.037286   
     56. D(C   4,C   3,C   2,H   7)    168.6201         0.037286   
     57. D(C   4,C   3,C   2,C   1)    -13.0343         0.037286   
     58. D(N  14,C   3,C   2,C   1)   -161.9648         0.037286   
     59. D(C   5,C   4,C   3,C   2)     10.6576         0.012907   
     60. D(H   9,C   4,C   3,N  14)    -22.2087         0.012907   
     61. D(H   9,C   4,C   3,H   8)     83.5982         0.012907   
     62. D(H   9,C   4,C   3,C   2)   -170.9842         0.012907   
     63. D(C   5,C   4,C   3,N  14)    159.4331         0.012907   
     64. D(C   5,C   4,C   3,H   8)    -94.7600         0.012907   
     65. D(H  10,C   5,C   4,H   9)     -0.0347         0.038884   
     66. D(C   0,C   5,C   4,H   9)    179.0608         0.038884   
     67. D(C   0,C   5,C   4,C   3)     -2.5613         0.038884   
     68. D(H  10,C   5,C   0,N  11)     -2.3880         0.013532   
     69. D(H  10,C   5,C   0,C   1)    175.8950         0.013532   
     70. D(H  10,C   5,C   4,C   3)    178.3432         0.038884   
     71. D(C   4,C   5,C   0,N  11)    178.5185         0.013532   
     72. D(C   4,C   5,C   0,C   1)     -3.1986         0.013532   
     73. D(H  13,N  11,C   0,C   1)   -179.1589         0.019988   
     74. D(H  12,N  11,C   0,C   5)    179.1758         0.019988   
     75. D(H  12,N  11,C   0,C   1)      0.9185         0.019988   
     76. D(H  13,N  11,C   0,C   5)     -0.9016         0.019988   
     77. D(O  16,N  14,C   3,H   8)    -90.1182         0.019068   
     78. D(O  16,N  14,C   3,C   4)     15.7203         0.019068   
     79. D(O  16,N  14,C   3,C   2)    164.0389         0.019068   
     80. D(O  15,N  14,C   3,H   8)     86.1962         0.019068   
     81. D(O  15,N  14,C   3,C   4)   -167.9654         0.019068   
     82. D(O  15,N  14,C   3,C   2)    -19.6467         0.019068   
    -----------------------------------------------------------------

Number of atoms                         .... 17
Number of degrees of freedom            .... 82

         *************************************************************
         *                GEOMETRY OPTIMIZATION CYCLE   1            *
         *************************************************************
---------------------------------
CARTESIAN COORDINATES (ANGSTROEM)
---------------------------------
  C     -2.849330    1.386920    0.342200
  C     -2.981150    0.819500   -0.869550
  C     -1.871450    0.017770   -1.442200
  C     -0.770090   -0.295390   -0.708500
  C     -0.596160    0.451140    0.580380
  C     -1.578400    1.217160    1.085520
  H     -3.888440    0.959270   -1.449610
  H     -1.982580   -0.333900   -2.464020
  H     -1.087730   -1.258270   -0.312340
  H      0.330200    0.357050    1.139260
  H     -1.432770    1.724270    2.034460
  N     -3.896740    2.170700    0.892340
  H     -4.781240    2.307870    0.381120
  H     -3.785800    2.614040    1.815680
  N      0.407700   -0.714290   -1.415480
  O      0.338640   -1.118120   -2.538530
  O      1.466530   -0.725020   -0.862610

----------------------------
CARTESIAN COORDINATES (A.U.)
----------------------------
  NO LB      ZA    FRAG     MASS         X           Y           Z
   0 C     6.0000    0    12.011   -5.384453    2.620899    0.646664
   1 C     6.0000    0    12.011   -5.633557    1.548631   -1.643211
   2 C     6.0000    0    12.011   -3.536528    0.033580   -2.725363
   3 C     6.0000    0    12.011   -1.455259   -0.558206   -1.338871
   4 C     6.0000    0    12.011   -1.126579    0.852531    1.096759
   5 C     6.0000    0    12.011   -2.982744    2.300099    2.051336
   6 H     1.0000    0     1.008   -7.348087    1.812758   -2.739366
   7 H     1.0000    0     1.008   -3.746533   -0.630980   -4.656323
   8 H     1.0000    0     1.008   -2.055512   -2.377786   -0.590237
   9 H     1.0000    0     1.008    0.623988    0.674727    2.152889
  10 H     1.0000    0     1.008   -2.707543    3.258398    3.844572
  11 N     7.0000    0    14.007   -7.363771    4.102029    1.686278
  12 H     1.0000    0     1.008   -9.035234    4.361242    0.720212
  13 H     1.0000    0     1.008   -7.154125    4.939820    3.431138
  14 N     7.0000    0    14.007    0.770441   -1.349812   -2.674870
  15 O     8.0000    0    15.999    0.639937   -2.112941   -4.797126
  16 O     8.0000    0    15.999    2.771340   -1.370089   -1.630097

--------------------------------
INTERNAL COORDINATES (ANGSTROEM)
--------------------------------
 C      0   0   0     0.000000000000     0.00000000     0.00000000
 C      1   0   0     1.344499918669     0.00000000     0.00000000
 C      2   1   0     1.483958592886   120.16442628     0.00000000
 C      3   2   1     1.359918646537   121.45541264     7.81679051
 C      4   3   2     1.499590057382   116.29571633   346.96566776
 C      5   4   3     1.344153442729   121.46304561    10.65763609
 H      2   1   3     1.085900732388   120.59914506   181.36552706
 H      3   2   1     1.086341464826   117.47557244   186.21925378
 H      4   3   2     1.088565941778    99.42278193    92.30250762
 H      5   4   3     1.085975428866   119.87621234   189.01583823
 H      6   5   4     1.085751248031   119.77595473   178.34319091
 N      1   2   3     1.419166239769   120.67010911   179.14731610
 H     12   1   2     1.030777253969   120.96720537     0.91852853
 H     12   1   2     1.030249870080   120.37173365   180.84106162
 N      4   3   2     1.436136210288   117.75941173   198.03519821
 O     15   4   3     1.195445212044   120.90548799   340.35331457
 O     15   4   3     1.194529756306   120.11392758   164.03892469

---------------------------
INTERNAL COORDINATES (A.U.)
---------------------------
 C      0   0   0     0.000000000000     0.00000000     0.00000000
 C      1   0   0     2.540736633363     0.00000000     0.00000000
 C      2   1   0     2.804275334634   120.16442628     0.00000000
 C      3   2   1     2.569873806368   121.45541264     7.81679051
 C      4   3   2     2.833814521604   116.29571633   346.96566776
 C      5   4   3     2.540081888725   121.46304561    10.65763609
 H      2   1   3     2.052054992837   120.59914506   181.36552706
 H      3   2   1     2.052887856444   117.47557244   186.21925378
 H      4   3   2     2.057091508675    99.42278193    92.30250762
 H      5   4   3     2.052196148724   119.87621234   189.01583823
 H      6   5   4     2.051772508341   119.77595473   178.34319091
 N      1   2   3     2.681835531670   120.67010911   179.14731610
 H     12   1   2     1.947886715077   120.96720537     0.91852853
 H     12   1   2     1.946890103959   120.37173365   180.84106162
 N      4   3   2     2.713904128452   117.75941173   198.03519821
 O     15   4   3     2.259064058871   120.90548799   340.35331457
 O     15   4   3     2.257334098238   120.11392758   164.03892469

---------------------
BASIS SET INFORMATION
---------------------
There are 4 groups of distinct atoms

 Group   1 Type C   : 7s4p1d contracted to 3s2p1d pattern {511/31/1}
 Group   2 Type H   : 4s1p contracted to 2s1p pattern {31/1}
 Group   3 Type N   : 7s4p1d contracted to 3s2p1d pattern {511/31/1}
 Group   4 Type O   : 7s4p1d contracted to 3s2p1d pattern {511/31/1}

Atom   0C    basis set group =>   1
Atom   1C    basis set group =>   1
Atom   2C    basis set group =>   1
Atom   3C    basis set group =>   1
Atom   4C    basis set group =>   1
Atom   5C    basis set group =>   1
Atom   6H    basis set group =>   2
Atom   7H    basis set group =>   2
Atom   8H    basis set group =>   2
Atom   9H    basis set group =>   2
Atom  10H    basis set group =>   2
Atom  11N    basis set group =>   3
Atom  12H    basis set group =>   2
Atom  13H    basis set group =>   2
Atom  14N    basis set group =>   3
Atom  15O    basis set group =>   4
Atom  16O    basis set group =>   4
---------------------------------
AUXILIARY/J BASIS SET INFORMATION
---------------------------------
There are 4 groups of distinct atoms

 Group   1 Type C   : 12s5p4d2f1g contracted to 6s4p3d1f1g pattern {711111/2111/211/2/1}
 Group   2 Type H   : 5s2p1d contracted to 3s1p1d pattern {311/2/1}
 Group   3 Type N   : 12s5p4d2f1g contracted to 6s4p3d1f1g pattern {711111/2111/211/2/1}
 Group   4 Type O   : 12s5p4d2f1g contracted to 6s4p3d1f1g pattern {711111/2111/211/2/1}

Atom   0C    basis set group =>   1
Atom   1C    basis set group =>   1
Atom   2C    basis set group =>   1
Atom   3C    basis set group =>   1
Atom   4C    basis set group =>   1
Atom   5C    basis set group =>   1
Atom   6H    basis set group =>   2
Atom   7H    basis set group =>   2
Atom   8H    basis set group =>   2
Atom   9H    basis set group =>   2
Atom  10H    basis set group =>   2
Atom  11N    basis set group =>   3
Atom  12H    basis set group =>   2
Atom  13H    basis set group =>   2
Atom  14N    basis set group =>   3
Atom  15O    basis set group =>   4
Atom  16O    basis set group =>   4
------------------------------------------------------------------------------
                           ORCA GTO INTEGRAL CALCULATION
                           -- RI-GTO INTEGRALS CHOSEN --
------------------------------------------------------------------------------
------------------------------------------------------------------------------
                   ___                                                        
                  /   \      - P O W E R E D   B Y -                         
                 /     \                                                     
                 |  |  |   _    _      __       _____    __    __             
                 |  |  |  | |  | |    /  \     |  _  \  |  |  /  |          
                  \  \/   | |  | |   /    \    | | | |  |  | /  /          
                 / \  \   | |__| |  /  /\  \   | |_| |  |  |/  /          
                |  |  |   |  __  | /  /__\  \  |    /   |      \           
                |  |  |   | |  | | |   __   |  |    \   |  |\   \          
                \     /   | |  | | |  |  |  |  | |\  \  |  | \   \       
                 \___/    |_|  |_| |__|  |__|  |_| \__\ |__|  \__/        
                                                                              
                      - O R C A' S   B I G   F R I E N D -                    
                                      &                                       
                       - I N T E G R A L  F E E D E R -                       
                                                                              
 v1 FN, 2020, v2 2021                                                         
------------------------------------------------------------------------------


Reading SHARK input file opt.SHARKINP.tmp ... ok
----------------------
SHARK INTEGRAL PACKAGE
----------------------

Number of atoms                             ...     17
Number of basis functions                   ...    175
Number of shells                            ...     81
Maximum angular momentum                    ...      2
Integral batch strategy                     ... SHARK/LIBINT Hybrid
RI-J (if used) integral strategy            ... SPLIT-RIJ (Revised 2003 algorithm where possible)
Printlevel                                  ...      1
Contraction scheme used                     ... SEGMENTED contraction
Coulomb Range Separation                    ... NOT USED
Exchange Range Separation                   ... NOT USED
Finite Nucleus Model                        ... NOT USED
Auxiliary Coulomb fitting basis             ... AVAILABLE
   # of basis functions in Aux-J            ...    567
   # of shells in Aux-J                     ...    185
   Maximum angular momentum in Aux-J        ...      4
Auxiliary J/K fitting basis                 ... NOT available
Auxiliary Correlation fitting basis         ... NOT available
Auxiliary 'external' fitting basis          ... NOT available
Integral threshold                          ...     2.500000e-11
Primitive cut-off                           ...     2.500000e-12
Primitive pair pre-selection threshold      ...     2.500000e-12

Calculating pre-screening integrals         ... done (  0.2 sec) Dimension = 81
Organizing shell pair data                  ... done (  0.1 sec)
Shell pair information
Total number of shell pairs                 ...      3321
Shell pairs after pre-screening             ...      3006
Total number of primitive shell pairs       ...     12241
Primitive shell pairs kept                  ...      7950
          la=0 lb=0:    897 shell pairs
          la=1 lb=0:   1089 shell pairs
          la=1 lb=1:    347 shell pairs
          la=2 lb=0:    386 shell pairs
          la=2 lb=1:    239 shell pairs
          la=2 lb=2:     48 shell pairs

Calculating one electron integrals          ... done (  0.0 sec)
Calculating RI/J V-Matrix + Cholesky decomp.... done (  0.0 sec)
Calculating Nuclear repulsion               ... done (  0.0 sec) ENN=    509.553894991023 Eh

SHARK setup successfully completed in   0.7 seconds

Maximum memory used throughout the entire GTOINT-calculation: 24.5 MB
-------------------------------------------------------------------------------
                                 ORCA SCF
-------------------------------------------------------------------------------

------------
SCF SETTINGS
------------
Hamiltonian:
 Density Functional     Method          .... DFT(GTOs)
 Exchange Functional    Exchange        .... B88
   X-Alpha parameter    XAlpha          ....  0.666667
   Becke's b parameter  XBeta           ....  0.004200
 Correlation Functional Correlation     .... LYP
 LDA part of GGA corr.  LDAOpt          .... VWN-5
 Gradients option       PostSCFGGA      .... off
 Hybrid DFT is turned on
   Fraction HF Exchange ScalHFX         ....  0.200000
   Scaling of DF-GGA-X  ScalDFX         ....  0.720000
   Scaling of DF-GGA-C  ScalDFC         ....  0.810000
   Scaling of DF-LDA-C  ScalLDAC        ....  1.000000
   Perturbative correction              ....  0.000000
   Density functional embedding theory  .... OFF
   NL short-range parameter             ....  4.800000
 RI-approximation to the Coulomb term is turned on
   Number of AuxJ basis functions       .... 567
   RIJ-COSX (HFX calculated with COS-X)).... on


General Settings:
 Integral files         IntName         .... opt
 Hartree-Fock type      HFTyp           .... RHF
 Total Charge           Charge          ....    1
 Multiplicity           Mult            ....    1
 Number of Electrons    NEL             ....   72
 Basis Dimension        Dim             ....  175
 Nuclear Repulsion      ENuc            ....    509.5538949910 Eh

Convergence Acceleration:
 DIIS                   CNVDIIS         .... on
   Start iteration      DIISMaxIt       ....    12
   Startup error        DIISStart       ....  0.200000
   # of expansion vecs  DIISMaxEq       ....     5
   Bias factor          DIISBfac        ....   1.050
   Max. coefficient     DIISMaxC        ....  10.000
 Trust-Rad. Augm. Hess. CNVTRAH         .... auto
   Auto Start mean grad. ratio tolernc. ....  1.125000
   Auto Start start iteration           ....    20
   Auto Start num. interpolation iter.  ....    10
   Max. Number of Micro iterations      ....    16
   Max. Number of Macro iterations      .... Maxiter - #DIIS iter
   Number of Davidson start vectors     ....     2
   Converg. threshold I  (grad. norm)   ....   1.000e-05
   Converg. threshold II (energy diff.) ....   1.000e-08
   Grad. Scal. Fac. for Micro threshold ....   0.100
   Minimum threshold for Micro iter.    ....   0.010
   NR start threshold (gradient norm)   ....   0.001
   Initial trust radius                 ....   0.400
   Minimum AH scaling param. (alpha)    ....   1.000
   Maximum AH scaling param. (alpha)    .... 1000.000
   Orbital update algorithm             .... Taylor
   White noise on init. David. guess    .... on
   Maximum white noise                  ....   0.010
   Quad. conv. algorithm                .... NR
 SOSCF                  CNVSOSCF        .... on
   Start iteration      SOSCFMaxIt      ....   150
   Startup grad/error   SOSCFStart      ....  0.003300
 Level Shifting         CNVShift        .... on
   Level shift para.    LevelShift      ....    0.2500
   Turn off err/grad.   ShiftErr        ....    0.0010
 Zerner damping         CNVZerner       .... off
 Static damping         CNVDamp         .... on
   Fraction old density DampFac         ....    0.7000
   Max. Damping (<1)    DampMax         ....    0.9800
   Min. Damping (>=0)   DampMin         ....    0.0000
   Turn off err/grad.   DampErr         ....    0.1000
 Fernandez-Rico         CNVRico         .... off

SCF Procedure:
 Maximum # iterations   MaxIter         ....   125
 SCF integral mode      SCFMode         .... Direct
   Integral package                     .... SHARK and LIBINT hybrid scheme
 Reset frequency        DirectResetFreq ....    20
 Integral Threshold     Thresh          ....  2.500e-11 Eh
 Primitive CutOff       TCut            ....  2.500e-12 Eh

Convergence Tolerance:
 Convergence Check Mode ConvCheckMode   .... Total+1el-Energy
 Convergence forced     ConvForced      .... 0
 Energy Change          TolE            ....  1.000e-08 Eh
 1-El. energy change                    ....  1.000e-05 Eh
 Orbital Gradient       TolG            ....  1.000e-05
 Orbital Rotation angle TolX            ....  1.000e-05
 DIIS Error             TolErr          ....  5.000e-07


Diagonalization of the overlap matrix:
Smallest eigenvalue                        ... 3.030e-04
Time for diagonalization                   ...    0.012 sec
Threshold for overlap eigenvalues          ... 1.000e-08
Number of eigenvalues below threshold      ... 0
Time for construction of square roots      ...    0.007 sec
Total time needed                          ...    0.020 sec

Time for model grid setup =    0.612 sec

------------------------------
INITIAL GUESS: MODEL POTENTIAL
------------------------------
Loading Hartree-Fock densities                     ... done
Calculating cut-offs                               ... done
Initializing the effective Hamiltonian             ... done
Setting up the integral package (SHARK)            ... done
Starting the Coulomb interaction                   ... done (   0.6 sec)
Reading the grid                                   ... done
Mapping shells                                     ... done
Starting the XC term evaluation                    ... done (   1.2 sec)
  promolecular density results
     # of electrons  =     72.994765592
     EX              =    -62.520038487
     EC              =     -2.520850655
     EX+EC           =    -65.040889141
Transforming the Hamiltonian                       ... done (   0.0 sec)
Diagonalizing the Hamiltonian                      ... done (   0.0 sec)
Back transforming the eigenvectors                 ... done (   0.0 sec)
Now organizing SCF variables                       ... done
                      ------------------
                      INITIAL GUESS DONE (   2.4 sec)
                      ------------------
-------------------
DFT GRID GENERATION
-------------------

General Integration Accuracy     IntAcc      ... 4.388
Radial Grid Type                 RadialGrid  ... OptM3 with GC (2021)
Angular Grid (max. ang.)         AngularGrid ... 4 (Lebedev-302)
Angular grid pruning method      GridPruning ... 4 (adaptive)
Weight generation scheme         WeightScheme... Becke
Basis function cutoff            BFCut       ... 1.0000e-11
Integration weight cutoff        WCut        ... 1.0000e-14
Angular grids for H and He will be reduced by one unit
Partially contracted basis set               ... off
Rotationally invariant grid construction     ... off

Total number of grid points                  ...    82830
Total number of batches                      ...     1301
Average number of points per batch           ...       63
Average number of grid points per atom       ...     4872
Time for grid setup =    2.356 sec

--------------------
COSX GRID GENERATION
--------------------

GRIDX 1
-------
General Integration Accuracy     IntAcc      ... 3.816
Radial Grid Type                 RadialGrid  ... OptM3 with GC (2021)
Angular Grid (max. ang.)         AngularGrid ... 1 (Lebedev-50)
Angular grid pruning method      GridPruning ... 4 (adaptive)
Weight generation scheme         WeightScheme... Becke
Basis function cutoff            BFCut       ... 1.0000e-11
Integration weight cutoff        WCut        ... 1.0000e-14
Angular grids for H and He will be reduced by one unit
Partially contracted basis set               ... on
Rotationally invariant grid construction     ... off

Total number of grid points                  ...    10565
Total number of batches                      ...      173
Average number of points per batch           ...       61
Average number of grid points per atom       ...      621
UseSFitting                                  ... on

GRIDX 2
-------
General Integration Accuracy     IntAcc      ... 4.020
Radial Grid Type                 RadialGrid  ... OptM3 with GC (2021)
Angular Grid (max. ang.)         AngularGrid ... 2 (Lebedev-110)
Angular grid pruning method      GridPruning ... 4 (adaptive)
Weight generation scheme         WeightScheme... Becke
Basis function cutoff            BFCut       ... 1.0000e-11
Integration weight cutoff        WCut        ... 1.0000e-14
Angular grids for H and He will be reduced by one unit
Partially contracted basis set               ... on
Rotationally invariant grid construction     ... off

Total number of grid points                  ...    23414
Total number of batches                      ...      374
Average number of points per batch           ...       62
Average number of grid points per atom       ...     1377
UseSFitting                                  ... on

GRIDX 3
-------
General Integration Accuracy     IntAcc      ... 4.338
Radial Grid Type                 RadialGrid  ... OptM3 with GC (2021)
Angular Grid (max. ang.)         AngularGrid ... 3 (Lebedev-194)
Angular grid pruning method      GridPruning ... 4 (adaptive)
Weight generation scheme         WeightScheme... Becke
Basis function cutoff            BFCut       ... 1.0000e-11
Integration weight cutoff        WCut        ... 1.0000e-14
Angular grids for H and He will be reduced by one unit
Partially contracted basis set               ... on
Rotationally invariant grid construction     ... off

Total number of grid points                  ...    51422
Total number of batches                      ...      812
Average number of points per batch           ...       63
Average number of grid points per atom       ...     3025
UseSFitting                                  ... on

Time for X-Grid setup             =    3.297 sec

--------------
SCF ITERATIONS
--------------
ITER       Energy         Delta-E        Max-DP      RMS-DP      [F,P]     Damp
               ***  Starting incremental Fock matrix formation  ***
  0   -491.5079480022   0.000000000000 0.10728541  0.00304685  0.2312189 0.7000
  1   -491.6253320876  -0.117384085470 0.05253046  0.00187933  0.0809100 0.7000
                               ***Turning on DIIS***
  2   -491.6629629768  -0.037630889154 0.06939336  0.00290347  0.0296073 0.0000
  3   -491.7367629521  -0.073799975269 0.03608361  0.00122987  0.0412369 0.0000
  4   -491.7462015742  -0.009438622127 0.01418782  0.00034996  0.0157017 0.0000
                      *** Initiating the SOSCF procedure ***
                           *** Shutting down DIIS ***
                      *** Re-Reading the Fockian *** 
                      *** Removing any level shift *** 
ITER      Energy       Delta-E        Grad      Rot      Max-DP    RMS-DP
  5   -491.74757791  -0.0013763322  0.000692  0.000692  0.004523  0.000134
               *** Restarting incremental Fock matrix formation ***
  6   -491.74757749   0.0000004174  0.000756  0.001425  0.003165  0.000083
  7   -491.74756068   0.0000168116  0.001458  0.001161  0.002305  0.000053
  8   -491.74758834  -0.0000276587  0.000356  0.001247  0.001534  0.000029
  9   -491.74758367   0.0000046635  0.000902  0.000916  0.001153  0.000021
 10   -491.74758913  -0.0000054582  0.000030  0.000115  0.000193  0.000005
 11   -491.74758907   0.0000000572  0.000063  0.000094  0.000121  0.000003
 12   -491.74758917  -0.0000000978  0.000019  0.000095  0.000062  0.000002
 13   -491.74758916   0.0000000158  0.000034  0.000063  0.000036  0.000001
 14   -491.74758917  -0.0000000191  0.000003  0.000010  0.000018  0.000000
 15   -491.74758918  -0.0000000043  0.000005  0.000007  0.000011  0.000000
                  ***Gradient check signals convergence***
              ***Rediagonalizing the Fockian in SOSCF/NRSCF***

               *****************************************************
               *                     SUCCESS                       *
               *           SCF CONVERGED AFTER  16 CYCLES          *
               *****************************************************

Old exchange energy                            =    -12.559110126 Eh
New exchange energy                            =    -12.559129828 Eh
Exchange energy change after final integration =     -0.000019701 Eh
Total energy after final integration           =   -491.747608879 Eh
Final COS-X integration done in                =    29.410 sec

----------------
TOTAL SCF ENERGY
----------------

Total Energy       :         -491.74760888 Eh          -13381.13272 eV

Components:
Nuclear Repulsion  :          509.55389499 Eh           13865.66640 eV
Electronic Energy  :        -1001.30150387 Eh          -27246.79912 eV
One Electron Energy:        -1664.51798234 Eh          -45293.83699 eV
Two Electron Energy:          663.21647847 Eh           18047.03787 eV
Max COSX asymmetry :            0.00000307 Eh               0.00008 eV

Virial components:
Potential Energy   :         -979.59580536 Eh          -26656.15704 eV
Kinetic Energy     :          487.84819648 Eh           13275.02432 eV
Virial Ratio       :            2.00799309


DFT components:
N(Alpha)           :       36.000039513042 electrons
N(Beta)            :       36.000039513042 electrons
N(Total)           :       72.000079026085 electrons
E(X)               :      -50.022886205508 Eh       
E(C)               :       -2.931809449429 Eh       
E(XC)              :      -52.954695654937 Eh       
DFET-embed. en.    :        0.000000000000 Eh       

---------------
SCF CONVERGENCE
---------------

  Last Energy change         ...    1.4977e-09  Tolerance :   1.0000e-08
  Last MAX-Density change    ...    1.7764e-15  Tolerance :   1.0000e-07
  Last RMS-Density change    ...    4.2522e-17  Tolerance :   5.0000e-09
  Last Orbital Gradient      ...    2.1421e-07  Tolerance :   1.0000e-05
  Last Orbital Rotation      ...    6.2440e-07  Tolerance :   1.0000e-05

             **** THE GBW FILE WAS UPDATED (opt.gbw) ****
             **** DENSITY opt.scfp WAS UPDATED ****
             **** ENERGY FILE WAS UPDATED (opt.en.tmp) ****
             **** THE GBW FILE WAS UPDATED (opt.gbw) ****
             **** DENSITY opt.scfp WAS UPDATED ****
----------------
ORBITAL ENERGIES
----------------

  NO   OCC          E(Eh)            E(eV) 
   0   2.0000     -19.312957      -525.5323 
   1   2.0000     -19.312714      -525.5257 
   2   2.0000     -14.721206      -400.5844 
   3   2.0000     -14.570238      -396.4763 
   4   2.0000     -10.475241      -285.0458 
   5   2.0000     -10.449222      -284.3378 
   6   2.0000     -10.441402      -284.1250 
   7   2.0000     -10.416080      -283.4359 
   8   2.0000     -10.408582      -283.2319 
   9   2.0000     -10.405186      -283.1395 
  10   2.0000      -1.409872       -38.3646 
  11   2.0000      -1.212857       -33.0035 
  12   2.0000      -1.121879       -30.5279 
  13   2.0000      -1.087343       -29.5881 
  14   2.0000      -0.995922       -27.1004 
  15   2.0000      -0.958988       -26.0954 
  16   2.0000      -0.888101       -24.1665 
  17   2.0000      -0.828291       -22.5389 
  18   2.0000      -0.795279       -21.6406 
  19   2.0000      -0.747305       -20.3352 
  20   2.0000      -0.737842       -20.0777 
  21   2.0000      -0.727512       -19.7966 
  22   2.0000      -0.701283       -19.0829 
  23   2.0000      -0.672843       -18.3090 
  24   2.0000      -0.669575       -18.2201 
  25   2.0000      -0.644049       -17.5255 
  26   2.0000      -0.638220       -17.3669 
  27   2.0000      -0.634329       -17.2610 
  28   2.0000      -0.606087       -16.4925 
  29   2.0000      -0.580976       -15.8092 
  30   2.0000      -0.562533       -15.3073 
  31   2.0000      -0.484555       -13.1854 
  32   2.0000      -0.477677       -12.9983 
  33   2.0000      -0.461347       -12.5539 
  34   2.0000      -0.456115       -12.4115 
  35   2.0000      -0.437525       -11.9057 
  36   0.0000      -0.298126        -8.1124 
  37   0.0000      -0.223429        -6.0798 
  38   0.0000      -0.216430        -5.8894 
  39   0.0000      -0.122583        -3.3357 
  40   0.0000      -0.120552        -3.2804 
  41   0.0000      -0.097823        -2.6619 
  42   0.0000      -0.087073        -2.3694 
  43   0.0000      -0.069456        -1.8900 
  44   0.0000      -0.043508        -1.1839 
  45   0.0000      -0.033346        -0.9074 
  46   0.0000      -0.010551        -0.2871 
  47   0.0000       0.009965         0.2712 
  48   0.0000       0.014033         0.3819 
  49   0.0000       0.060543         1.6475 
  50   0.0000       0.079956         2.1757 
  51   0.0000       0.088544         2.4094 
  52   0.0000       0.126385         3.4391 
  53   0.0000       0.140605         3.8260 
  54   0.0000       0.174472         4.7476 
  55   0.0000       0.184509         5.0208 
  56   0.0000       0.213200         5.8015 
  57   0.0000       0.230208         6.2643 
  58   0.0000       0.261621         7.1191 
  59   0.0000       0.267258         7.2725 
  60   0.0000       0.276691         7.5291 
  61   0.0000       0.292836         7.9685 
  62   0.0000       0.301687         8.2093 
  63   0.0000       0.314651         8.5621 
  64   0.0000       0.331212         9.0127 
  65   0.0000       0.338170         9.2021 
  66   0.0000       0.348052         9.4710 
  67   0.0000       0.380571        10.3559 
  68   0.0000       0.402221        10.9450 
  69   0.0000       0.412988        11.2380 
  70   0.0000       0.433617        11.7993 
  71   0.0000       0.446022        12.1369 
  72   0.0000       0.470229        12.7956 
  73   0.0000       0.473880        12.8949 
  74   0.0000       0.483143        13.1470 
  75   0.0000       0.492672        13.4063 
  76   0.0000       0.500154        13.6099 
  77   0.0000       0.506865        13.7925 
  78   0.0000       0.519797        14.1444 
  79   0.0000       0.550821        14.9886 
  80   0.0000       0.566092        15.4041 
  81   0.0000       0.576058        15.6753 
  82   0.0000       0.586135        15.9495 
  83   0.0000       0.622212        16.9313 
  84   0.0000       0.641493        17.4559 
  85   0.0000       0.676014        18.3953 
  86   0.0000       0.713426        19.4133 
  87   0.0000       0.720694        19.6111 
  88   0.0000       0.776979        21.1427 
  89   0.0000       0.786869        21.4118 
  90   0.0000       0.796543        21.6750 
  91   0.0000       0.820397        22.3241 
  92   0.0000       0.849616        23.1192 
  93   0.0000       0.866769        23.5860 
  94   0.0000       0.895267        24.3615 
  95   0.0000       0.912738        24.8369 
  96   0.0000       0.987359        26.8674 
  97   0.0000       0.994508        27.0619 
  98   0.0000       1.015820        27.6419 
  99   0.0000       1.033529        28.1237 
 100   0.0000       1.037056        28.2197 
 101   0.0000       1.061925        28.8965 
 102   0.0000       1.072849        29.1937 
 103   0.0000       1.110616        30.2214 
 104   0.0000       1.135812        30.9070 
 105   0.0000       1.162115        31.6227 
 106   0.0000       1.183741        32.2112 
 107   0.0000       1.212349        32.9897 
 108   0.0000       1.219670        33.1889 
 109   0.0000       1.329950        36.1898 
 110   0.0000       1.389988        37.8235 
 111   0.0000       1.412573        38.4381 
 112   0.0000       1.444296        39.3013 
 113   0.0000       1.492098        40.6021 
 114   0.0000       1.507602        41.0239 
 115   0.0000       1.514683        41.2166 
 116   0.0000       1.531609        41.6772 
 117   0.0000       1.548067        42.1250 
 118   0.0000       1.560619        42.4666 
 119   0.0000       1.570539        42.7365 
 120   0.0000       1.582851        43.0716 
 121   0.0000       1.607775        43.7498 
 122   0.0000       1.639759        44.6201 
 123   0.0000       1.668849        45.4117 
 124   0.0000       1.677769        45.6544 
 125   0.0000       1.708816        46.4992 
 126   0.0000       1.715592        46.6836 
 127   0.0000       1.755354        47.7656 
 128   0.0000       1.780703        48.4554 
 129   0.0000       1.793543        48.8048 
 130   0.0000       1.810963        49.2788 
 131   0.0000       1.856472        50.5172 
 132   0.0000       1.882382        51.2222 
 133   0.0000       1.904438        51.8224 
 134   0.0000       1.928712        52.4829 
 135   0.0000       1.935327        52.6629 
 136   0.0000       1.955841        53.2211 
 137   0.0000       2.037015        55.4300 
 138   0.0000       2.058232        56.0073 
 139   0.0000       2.088560        56.8326 
 140   0.0000       2.104962        57.2789 
 141   0.0000       2.120225        57.6943 
 142   0.0000       2.134446        58.0812 
 143   0.0000       2.174985        59.1844 
 144   0.0000       2.196045        59.7574 
 145   0.0000       2.259466        61.4832 
 146   0.0000       2.279039        62.0158 
 147   0.0000       2.335641        63.5560 
 148   0.0000       2.351732        63.9939 
 149   0.0000       2.413335        65.6702 
 150   0.0000       2.435927        66.2849 
 151   0.0000       2.453323        66.7583 
 152   0.0000       2.469514        67.1989 
 153   0.0000       2.476728        67.3952 
 154   0.0000       2.489327        67.7380 
 155   0.0000       2.498067        67.9759 
 156   0.0000       2.526716        68.7554 
 157   0.0000       2.544780        69.2470 
 158   0.0000       2.568296        69.8869 
 159   0.0000       2.612834        71.0988 
 160   0.0000       2.645004        71.9742 
 161   0.0000       2.673498        72.7496 
 162   0.0000       2.759323        75.0850 
 163   0.0000       2.820189        76.7412 
 164   0.0000       2.832421        77.0741 
 165   0.0000       2.913511        79.2807 
 166   0.0000       2.956437        80.4487 
 167   0.0000       3.003739        81.7359 
 168   0.0000       3.068239        83.4910 
 169   0.0000       3.156373        85.8893 
 170   0.0000       3.235761        88.0495 
 171   0.0000       3.291884        89.5767 
 172   0.0000       3.381518        92.0158 
 173   0.0000       3.630210        98.7830 
 174   0.0000       3.656747        99.5052 

                    ********************************
                    * MULLIKEN POPULATION ANALYSIS *
                    ********************************

-----------------------
MULLIKEN ATOMIC CHARGES
-----------------------
   0 C :    0.141560
   1 C :   -0.011472
   2 C :   -0.055536
   3 C :    0.286416
   4 C :   -0.021681
   5 C :    0.072379
   6 H :    0.042876
   7 H :    0.096866
   8 H :    0.156459
   9 H :    0.081939
  10 H :    0.040582
  11 N :   -0.053118
  12 H :    0.182477
  13 H :    0.182677
  14 N :    0.208492
  15 O :   -0.178289
  16 O :   -0.172626
Sum of atomic charges:    1.0000000

--------------------------------
MULLIKEN REDUCED ORBITAL CHARGES
--------------------------------
  0 C s       :     2.995168  s :     2.995168
      pz      :     0.987577  p :     2.802776
      px      :     0.970790
      py      :     0.844408
      dz2     :     0.012448  d :     0.060496
      dxz     :     0.015858
      dyz     :     0.008819
      dx2y2   :     0.012251
      dxy     :     0.011120
  1 C s       :     3.244867  s :     3.244867
      pz      :     0.925745  p :     2.736119
      px      :     0.837676
      py      :     0.972698
      dz2     :     0.008196  d :     0.030485
      dxz     :     0.007259
      dyz     :     0.005914
      dx2y2   :     0.004498
      dxy     :     0.004618
  2 C s       :     3.320513  s :     3.320513
      pz      :     0.911531  p :     2.700374
      px      :     0.966458
      py      :     0.822385
      dz2     :     0.006400  d :     0.034649
      dxz     :     0.009045
      dyz     :     0.005842
      dx2y2   :     0.007126
      dxy     :     0.006236
  3 C s       :     2.773535  s :     2.773535
      pz      :     0.953193  p :     2.882332
      px      :     0.883924
      py      :     1.045215
      dz2     :     0.010667  d :     0.057718
      dxz     :     0.016787
      dyz     :     0.008797
      dx2y2   :     0.010755
      dxy     :     0.010712
  4 C s       :     3.252597  s :     3.252597
      pz      :     0.950082  p :     2.735106
      px      :     0.901973
      py      :     0.883051
      dz2     :     0.007175  d :     0.033978
      dxz     :     0.007703
      dyz     :     0.006174
      dx2y2   :     0.007804
      dxy     :     0.005123
  5 C s       :     3.196098  s :     3.196098
      pz      :     0.835677  p :     2.699644
      px      :     0.915628
      py      :     0.948338
      dz2     :     0.006051  d :     0.031880
      dxz     :     0.008600
      dyz     :     0.004967
      dx2y2   :     0.006965
      dxy     :     0.005297
  6 H s       :     0.933448  s :     0.933448
      pz      :     0.007550  p :     0.023676
      px      :     0.012066
      py      :     0.004060
  7 H s       :     0.878983  s :     0.878983
      pz      :     0.016100  p :     0.024151
      px      :     0.003485
      py      :     0.004566
  8 H s       :     0.814651  s :     0.814651
      pz      :     0.008077  p :     0.028890
      px      :     0.005945
      py      :     0.014868
  9 H s       :     0.894047  s :     0.894047
      pz      :     0.006580  p :     0.024014
      px      :     0.013959
      py      :     0.003476
 10 H s       :     0.935846  s :     0.935846
      pz      :     0.013408  p :     0.023572
      px      :     0.003473
      py      :     0.006691
 11 N s       :     3.349818  s :     3.349818
      pz      :     1.157180  p :     3.690454
      px      :     1.123571
      py      :     1.409703
      dz2     :     0.002502  d :     0.012846
      dxz     :     0.003348
      dyz     :     0.002073
      dx2y2   :     0.002671
      dxy     :     0.002252
 12 H s       :     0.774627  s :     0.774627
      pz      :     0.011820  p :     0.042895
      px      :     0.021700
      py      :     0.009376
 13 H s       :     0.774433  s :     0.774433
      pz      :     0.023031  p :     0.042890
      px      :     0.007083
      py      :     0.012776
 14 N s       :     3.275374  s :     3.275374
      pz      :     1.079476  p :     3.389646
      px      :     1.109654
      py      :     1.200515
      dz2     :     0.032192  d :     0.126488
      dxz     :     0.041264
      dyz     :     0.021235
      dx2y2   :     0.013531
      dxy     :     0.018265
 15 O s       :     3.865756  s :     3.865756
      pz      :     1.133884  p :     4.287980
      px      :     1.802263
      py      :     1.351833
      dz2     :     0.010432  d :     0.024552
      dxz     :     0.004370
      dyz     :     0.008025
      dx2y2   :     0.001035
      dxy     :     0.000690
 16 O s       :     3.864606  s :     3.864606
      pz      :     1.633472  p :     4.283423
      px      :     1.217688
      py      :     1.432263
      dz2     :     0.002926  d :     0.024597
      dxz     :     0.007671
      dyz     :     0.001423
      dx2y2   :     0.006638
      dxy     :     0.005939


                     *******************************
                     * LOEWDIN POPULATION ANALYSIS *
                     *******************************

----------------------
LOEWDIN ATOMIC CHARGES
----------------------
   0 C :    0.122381
   1 C :   -0.019758
   2 C :    0.137650
   3 C :   -0.019381
   4 C :    0.074046
   5 C :   -0.000027
   6 H :    0.060118
   7 H :    0.073488
   8 H :    0.146934
   9 H :    0.070119
  10 H :    0.060759
  11 N :    0.074902
  12 H :    0.120006
  13 H :    0.118992
  14 N :    0.265102
  15 O :   -0.146050
  16 O :   -0.139281

-------------------------------
LOEWDIN REDUCED ORBITAL CHARGES
-------------------------------
  0 C s       :     2.855847  s :     2.855847
      pz      :     1.037660  p :     2.882389
      px      :     0.973638
      py      :     0.871091
      dz2     :     0.029491  d :     0.139383
      dxz     :     0.039106
      dyz     :     0.020604
      dx2y2   :     0.025493
      dxy     :     0.024689
  1 C s       :     2.863499  s :     2.863499
      pz      :     1.043129  p :     3.074022
      px      :     1.030616
      py      :     1.000276
      dz2     :     0.021494  d :     0.082237
      dxz     :     0.022522
      dyz     :     0.016090
      dx2y2   :     0.010401
      dxy     :     0.011731
  2 C s       :     2.884665  s :     2.884665
      pz      :     1.038458  p :     2.891251
      px      :     1.010376
      py      :     0.842417
      dz2     :     0.017991  d :     0.086434
      dxz     :     0.023682
      dyz     :     0.011837
      dx2y2   :     0.016770
      dxy     :     0.016154
  3 C s       :     2.803623  s :     2.803623
      pz      :     1.037940  p :     3.070828
      px      :     0.984475
      py      :     1.048412
      dz2     :     0.024815  d :     0.144930
      dxz     :     0.044300
      dyz     :     0.023602
      dx2y2   :     0.027843
      dxy     :     0.024370
  4 C s       :     2.875903  s :     2.875903
      pz      :     0.989307  p :     2.965193
      px      :     1.061650
      py      :     0.914236
      dz2     :     0.018572  d :     0.084859
      dxz     :     0.019529
      dyz     :     0.015748
      dx2y2   :     0.017626
      dxy     :     0.013384
  5 C s       :     2.865744  s :     2.865744
      pz      :     1.027926  p :     3.050293
      px      :     1.016549
      py      :     1.005818
      dz2     :     0.015276  d :     0.083989
      dxz     :     0.023288
      dyz     :     0.012890
      dx2y2   :     0.017711
      dxy     :     0.014824
  6 H s       :     0.868576  s :     0.868576
      pz      :     0.022132  p :     0.071306
      px      :     0.035846
      py      :     0.013327
  7 H s       :     0.850792  s :     0.850792
      pz      :     0.048381  p :     0.075719
      px      :     0.011995
      py      :     0.015343
  8 H s       :     0.772201  s :     0.772201
      pz      :     0.021914  p :     0.080866
      px      :     0.018444
      py      :     0.040508
  9 H s       :     0.855729  s :     0.855729
      pz      :     0.022070  p :     0.074152
      px      :     0.040522
      py      :     0.011560
 10 H s       :     0.868359  s :     0.868359
      pz      :     0.039363  p :     0.070883
      px      :     0.011692
      py      :     0.019828
 11 N s       :     3.058562  s :     3.058562
      pz      :     1.232925  p :     3.832126
      px      :     1.200028
      py      :     1.399173
      dz2     :     0.007376  d :     0.034409
      dxz     :     0.009686
      dyz     :     0.005264
      dx2y2   :     0.006326
      dxy     :     0.005758
 12 H s       :     0.763308  s :     0.763308
      pz      :     0.030937  p :     0.116686
      px      :     0.058518
      py      :     0.027230
 13 H s       :     0.764149  s :     0.764149
      pz      :     0.062873  p :     0.116858
      px      :     0.016941
      py      :     0.037044
 14 N s       :     3.020273  s :     3.020273
      pz      :     1.146743  p :     3.448013
      px      :     1.152932
      py      :     1.148337
      dz2     :     0.070129  d :     0.266612
      dxz     :     0.090974
      dyz     :     0.041804
      dx2y2   :     0.030368
      dxy     :     0.033336
 15 O s       :     3.603624  s :     3.603624
      pz      :     1.300079  p :     4.494852
      px      :     1.798054
      py      :     1.396718
      dz2     :     0.022831  d :     0.047575
      dxz     :     0.006917
      dyz     :     0.015187
      dx2y2   :     0.001578
      dxy     :     0.001062
 16 O s       :     3.603155  s :     3.603155
      pz      :     1.670528  p :     4.488491
      px      :     1.370502
      py      :     1.447460
      dz2     :     0.005181  d :     0.047636
      dxz     :     0.016667
      dyz     :     0.002266
      dx2y2   :     0.015106
      dxy     :     0.008415


                      *****************************
                      * MAYER POPULATION ANALYSIS *
                      *****************************

  NA   - Mulliken gross atomic population
  ZA   - Total nuclear charge
  QA   - Mulliken gross atomic charge
  VA   - Mayer's total valence
  BVA  - Mayer's bonded valence
  FA   - Mayer's free valence

  ATOM       NA         ZA         QA         VA         BVA        FA
  0 C      5.8584     6.0000     0.1416     3.9720     3.9720    -0.0000
  1 C      6.0115     6.0000    -0.0115     3.8143     3.8143    -0.0000
  2 C      6.0555     6.0000    -0.0555     3.9211     3.9211    -0.0000
  3 C      5.7136     6.0000     0.2864     3.6835     3.6835    -0.0000
  4 C      6.0217     6.0000    -0.0217     3.9593     3.9593    -0.0000
  5 C      5.9276     6.0000     0.0724     3.8179     3.8179    -0.0000
  6 H      0.9571     1.0000     0.0429     0.9961     0.9961    -0.0000
  7 H      0.9031     1.0000     0.0969     1.0131     1.0131     0.0000
  8 H      0.8435     1.0000     0.1565     0.9826     0.9826    -0.0000
  9 H      0.9181     1.0000     0.0819     1.0103     1.0103     0.0000
 10 H      0.9594     1.0000     0.0406     0.9926     0.9926    -0.0000
 11 N      7.0531     7.0000    -0.0531     3.4348     3.4348     0.0000
 12 H      0.8175     1.0000     0.1825     0.9766     0.9766    -0.0000
 13 H      0.8173     1.0000     0.1827     0.9757     0.9757    -0.0000
 14 N      6.7915     7.0000     0.2085     4.0171     4.0171     0.0000
 15 O      8.1783     8.0000    -0.1783     1.9964     1.9964     0.0000
 16 O      8.1726     8.0000    -0.1726     2.0065     2.0065    -0.0000

  Mayer bond orders larger than 0.100000
B(  0-C ,  1-C ) :   1.2738 B(  0-C ,  5-C ) :   1.0791 B(  0-C , 11-N ) :   1.4239 
B(  1-C ,  2-C ) :   1.5055 B(  1-C ,  6-H ) :   0.9963 B(  2-C ,  3-C ) :   1.0385 
B(  2-C ,  7-H ) :   0.9689 B(  3-C ,  4-C ) :   0.9804 B(  3-C ,  8-H ) :   0.7641 
B(  3-C , 14-N ) :   0.8141 B(  4-C ,  5-C ) :   1.7163 B(  4-C ,  9-H ) :   0.9667 
B(  5-C , 10-H ) :   0.9826 B( 11-N , 12-H ) :   0.9254 B( 11-N , 13-H ) :   0.9248 
B( 14-N , 15-O ) :   1.5690 B( 14-N , 16-O ) :   1.5838 B( 15-O , 16-O ) :   0.2855 


-------
TIMINGS
-------

Total SCF time: 0 days 0 hours 4 min 41 sec 

Total time                  ....     281.388 sec
Sum of individual times     ....     279.726 sec  ( 99.4%)

Fock matrix formation       ....     271.305 sec  ( 96.4%)
  Split-RI-J                ....      17.355 sec  (  6.4% of F)
  Chain of spheres X        ....     213.214 sec  ( 78.6% of F)
  XC integration            ....      39.906 sec  ( 14.7% of F)
    Basis function eval.    ....      15.474 sec  ( 38.8% of XC)
    Density eval.           ....      11.461 sec  ( 28.7% of XC)
    XC-Functional eval.     ....       3.016 sec  (  7.6% of XC)
    XC-Potential eval.      ....       7.648 sec  ( 19.2% of XC)
Diagonalization             ....       0.075 sec  (  0.0%)
Density matrix formation    ....       0.018 sec  (  0.0%)
Population analysis         ....       0.057 sec  (  0.0%)
Initial guess               ....       1.831 sec  (  0.7%)
Orbital Transformation      ....       0.000 sec  (  0.0%)
Orbital Orthonormalization  ....       0.000 sec  (  0.0%)
DIIS solution               ....       0.080 sec  (  0.0%)
SOSCF solution              ....       0.095 sec  (  0.0%)
Grid generation             ....       6.265 sec  (  2.2%)

Maximum memory used throughout the entire SCF-calculation: 74.3 MB


-------------------------------------------------------------------------------
                          DFT DISPERSION CORRECTION                            
                                                                               
                                 DFTD4 V2.5                                    
-------------------------------------------------------------------------------
The B3LYP functional is recognized
Active option DFTDOPT                   ...         5   

Starting D4
-------------------------   ----------------
Dispersion correction           -0.025938813
-------------------------   ----------------


-------------------------   --------------------
FINAL SINGLE POINT ENERGY      -491.773547691670
-------------------------   --------------------

------------------------------------------------------------------------------
                         ORCA SCF GRADIENT CALCULATION
------------------------------------------------------------------------------

 ... reading COSX grid (gridx3)
Gradient of the Kohn-Sham DFT energy:
Kohn-Sham wavefunction type      ... RKS
Hartree-Fock exchange scaling    ...    0.200
Number of operators              ...    1
Number of atoms                  ...   17
Basis set dimensions             ...  175
Integral neglect threshold       ... 2.5e-11
Integral primitive cutoff        ... 2.5e-12
SHARK Integral package           ... ON

Nuc. rep. gradient       (SHARK) ... done (  0.0 sec)
HCore & Overlap gradient (SHARK) ... done (  0.5 sec)
RI-J gradient            (SHARK) ... done (  4.4 sec)
COSX-gradient                    ... done ( 38.2 sec)
Exchange-correlation gradient    ... done
Dispersion correction            ... Starting D4


------------------- 
Dispersion Gradient 
------------------- 
   1  :   -0.000339478    0.000259784    0.000164602
   2  :   -0.000479234    0.000101242   -0.000227553
   3  :   -0.000222266   -0.000152752   -0.000411163
   4  :    0.000200963   -0.000213081   -0.000098318
   5  :    0.000303489    0.000023420    0.000413122
   6  :    0.000032121    0.000246817    0.000493399
   7  :   -0.000158406    0.000019473   -0.000118264
   8  :   -0.000059868   -0.000054036   -0.000196233
   9  :    0.000048673   -0.000191267   -0.000000205
  10  :    0.000153317    0.000015234    0.000151260
  11  :    0.000057396    0.000080749    0.000176058
  12  :   -0.000434508    0.000306197    0.000196980
  13  :   -0.000192400    0.000078194   -0.000022383
  14  :   -0.000073152    0.000120081    0.000158848
  15  :    0.000447291   -0.000270101   -0.000272149
  16  :    0.000234696   -0.000214028   -0.000354635
  17  :    0.000481368   -0.000155927   -0.000053364

  |G| =    0.001349778

done

------------------
CARTESIAN GRADIENT
------------------

   1   C   :    0.027972623   -0.064234568   -0.094608897
   2   C   :   -0.052690869    0.071445257    0.089430375
   3   C   :    0.136189557   -0.073321888    0.023483526
   4   C   :   -0.027221382   -0.001264759   -0.075157963
   5   C   :   -0.009651298   -0.005676790    0.002631862
   6   C   :    0.023664625   -0.003472429    0.010062640
   7   H   :    0.001042669    0.000912592    0.005593572
   8   H   :   -0.000818046    0.004762180    0.003754616
   9   H   :    0.007964955    0.023394883   -0.011351493
  10   H   :   -0.005515307    0.005485024    0.001926948
  11   H   :    0.000958037   -0.002223445   -0.003884588
  12   N   :   -0.049613614    0.034655561    0.020158260
  13   H   :   -0.011008186    0.001875666   -0.006130909
  14   H   :    0.001869380    0.004829912    0.011381416
  15   N   :   -0.066630717    0.012689943    0.036230544
  16   O   :    0.044900238    0.005864342    0.040375333
  17   O   :   -0.021537368   -0.015547904   -0.053903112

Difference to translation invariance:
           :   -0.0001247037    0.0001735761   -0.0000078722

Difference to rotation invariance:
           :    0.0002371548    0.0000069286   -0.0010112687

Norm of the cartesian gradient     ...    0.2826624955
RMS gradient                       ...    0.0395806663
MAX gradient                       ...    0.1361895570

-------
TIMINGS
-------

Total SCF gradient time            ...       58.168 sec

One electron gradient       ....       0.506 sec  (  0.9%)
RI-J Coulomb gradient       ....       4.383 sec  (  7.5%)
COSX gradient               ....      38.202 sec  ( 65.7%)
XC gradient                 ....      13.697 sec  ( 23.5%)

Maximum memory used throughout the entire SCFGRAD-calculation: 59.8 MB
------------------------------------------------------------------------------
                         ORCA GEOMETRY RELAXATION STEP
------------------------------------------------------------------------------

Reading the OPT-File                    .... done
Getting information on internals        .... done
Copying old internal coords+grads       .... done
Making the new internal coordinates     .... (new redundants).... done
Validating the new internal coordinates .... (new redundants).... done
Calculating the B-matrix                .... done
Calculating the G,G- and P matrices     .... done
Transforming gradient to internals      .... done
Projecting the internal gradient        .... done
Number of atoms                         ....  17
Number of internal coordinates          ....  82
Current Energy                          ....  -491.773547692 Eh
Current gradient norm                   ....     0.282662495 Eh/bohr
Maximum allowed component of the step   ....  0.300
Current trust radius                    ....  0.300
Evaluating the initial hessian          ....  (Almloef) done
Projecting the Hessian                  .... done
Forming the augmented Hessian           .... done
Diagonalizing the augmented Hessian     .... done
Last element of RFO vector              ....  0.946157355
Lowest eigenvalues of augmented Hessian:
 -0.065990986  0.018122348  0.019068233  0.019375649  0.019639242
Length of the computed step             ....  0.342128143
Warning: the length of the step is outside the trust region - taking restricted step instead
The input lambda is                     ....    -0.065991
   iter:   1  x=   -0.118250  g=    0.517648 f(x)=     0.027052
   iter:   2  x=   -0.134488  g=    0.336310 f(x)=     0.005461
   iter:   3  x=   -0.135393  g=    0.303508 f(x)=     0.000275
   iter:   4  x=   -0.135396  g=    0.301853 f(x)=     0.000001
   iter:   5  x=   -0.135396  g=    0.301849 f(x)=     0.000000
   iter:   6  x=   -0.135396  g=    0.301849 f(x)=    -0.000000
The output lambda is                    ....    -0.135396 (6 iterations)
The final length of the internal step   ....  0.300000000
Converting the step to cartesian space:
 Initial RMS(Int)=    0.0331294578
Transforming coordinates:
 Iter   0:  RMS(Cart)=    0.0565663782 RMS(Int)=    0.0330906256
 Iter   1:  RMS(Cart)=    0.0008533960 RMS(Int)=    0.0005963845
 Iter   2:  RMS(Cart)=    0.0000361000 RMS(Int)=    0.0000320115
 Iter   3:  RMS(Cart)=    0.0000023040 RMS(Int)=    0.0000019817
 Iter   4:  RMS(Cart)=    0.0000001143 RMS(Int)=    0.0000000964
 Iter   5:  RMS(Cart)=    0.0000000052 RMS(Int)=    0.0000000035
done
Storing new coordinates                 .... done

                                .--------------------.
          ----------------------|Geometry convergence|-------------------------
          Item                value                   Tolerance       Converged
          ---------------------------------------------------------------------
          RMS gradient        0.0223490567            0.0001000000      NO
          MAX gradient        0.0922176375            0.0003000000      NO
          RMS step            0.0331294578            0.0020000000      NO
          MAX step            0.1431873706            0.0040000000      NO
          ........................................................
          Max(Bonds)      0.0758      Max(Angles)    5.85
          Max(Dihed)        1.36      Max(Improp)    0.00
          ---------------------------------------------------------------------

The optimization has not yet converged - more geometry cycles are needed


    ---------------------------------------------------------------------------
                         Redundant Internal Coordinates
                            (Angstroem and degrees)

        Definition                    Value    dE/dq     Step     New-Value
    ----------------------------------------------------------------------------
     1. B(C   1,C   0)                1.3445 -0.072776  0.0443    1.3888   
     2. B(C   2,C   1)                1.4840  0.084188 -0.0758    1.4082   
     3. B(C   3,C   2)                1.3599 -0.092218  0.0593    1.4193   
     4. B(C   4,C   3)                1.4996  0.005191 -0.0054    1.4942   
     5. B(C   5,C   4)                1.3442 -0.005004  0.0021    1.3463   
     6. B(C   5,C   0)                1.4821  0.016525 -0.0160    1.4661   
     7. B(H   6,C   1)                1.0859 -0.003749  0.0040    1.0899   
     8. B(H   7,C   2)                1.0863 -0.004988  0.0053    1.0916   
     9. B(H   8,C   3)                1.0886 -0.027145  0.0289    1.1174   
    10. B(H   9,C   4)                1.0860 -0.004181  0.0044    1.0904   
    11. B(H  10,C   5)                1.0858 -0.004308  0.0045    1.0903   
    12. B(N  11,C   0)                1.4192  0.076022 -0.0630    1.3561   
    13. B(H  12,N  11)                1.0308  0.012732 -0.0126    1.0182   
    14. B(H  13,N  11)                1.0302  0.012473 -0.0123    1.0180   
    15. B(N  14,C   3)                1.4361 -0.047507  0.0414    1.4775   
    16. B(O  15,N  14)                1.1954 -0.042504  0.0194    1.2148   
    17. B(O  16,N  14)                1.1945 -0.043890  0.0200    1.2145   
    18. A(C   5,C   0,N  11)          120.11  0.010653   -1.11    119.00   
    19. A(C   1,C   0,C   5)          119.19 -0.010135    1.01    120.20   
    20. A(C   1,C   0,N  11)          120.67 -0.000516    0.10    120.77   
    21. A(C   0,C   1,H   6)          120.60 -0.005949    0.57    121.17   
    22. A(C   2,C   1,H   6)          119.22  0.002728   -0.45    118.78   
    23. A(C   0,C   1,C   2)          120.16  0.003234   -0.13    120.04   
    24. A(C   3,C   2,H   7)          121.05 -0.000808   -0.10    120.95   
    25. A(C   1,C   2,H   7)          117.48 -0.006243    0.56    118.04   
    26. A(C   1,C   2,C   3)          121.46  0.007059   -0.47    120.99   
    27. A(C   4,C   3,H   8)           99.29 -0.000571    0.25     99.54   
    28. A(C   2,C   3,C   4)          116.30 -0.006167    0.63    116.92   
    29. A(C   2,C   3,H   8)           99.42 -0.000523    0.42     99.84   
    30. A(H   8,C   3,N  14)           99.23 -0.004197    0.85    100.08   
    31. A(C   2,C   3,N  14)          117.76  0.001203   -0.34    117.42   
    32. A(C   4,C   3,N  14)          118.24  0.007830   -1.11    117.13   
    33. A(C   5,C   4,H   9)          118.64 -0.010495    1.28    119.92   
    34. A(C   3,C   4,H   9)          119.88  0.003372   -0.33    119.55   
    35. A(C   3,C   4,C   5)          121.46  0.007150   -0.96    120.50   
    36. A(C   0,C   5,H  10)          119.99  0.001896   -0.08    119.91   
    37. A(C   0,C   5,C   4)          120.23 -0.000692   -0.19    120.04   
    38. A(C   4,C   5,H  10)          119.78 -0.001199    0.27    120.05   
    39. A(H  12,N  11,H  13)          118.66  0.000297   -0.04    118.62   
    40. A(C   0,N  11,H  13)          120.37 -0.001093    0.13    120.50   
    41. A(C   0,N  11,H  12)          120.97  0.000796   -0.09    120.87   
    42. A(O  15,N  14,O  16)          118.88 -0.063428    5.85    124.73   
    43. A(C   3,N  14,O  16)          120.11  0.029175   -2.66    117.45   
    44. A(C   3,N  14,O  15)          120.91  0.034322   -3.17    117.73   
    45. D(C   2,C   1,C   0,C   5)      0.87  0.000583    0.05      0.92   
    46. D(H   6,C   1,C   0,C   5)   -177.76 -0.000087    0.23   -177.54   
    47. D(H   6,C   1,C   0,N  11)      0.51  0.000214    0.16      0.67   
    48. D(C   2,C   1,C   0,N  11)    179.15  0.000884   -0.01    179.13   
    49. D(H   7,C   2,C   1,H   6)      4.87  0.001304   -0.25      4.62   
    50. D(H   7,C   2,C   1,C   0)   -173.78  0.000761   -0.10   -173.88   
    51. D(C   3,C   2,C   1,H   6)   -173.53  0.000990   -0.12   -173.65   
    52. D(C   3,C   2,C   1,C   0)      7.82  0.000448    0.04      7.86   
    53. D(N  14,C   3,C   2,H   7)     19.69 -0.004912    1.36     21.05   
    54. D(H   8,C   3,C   2,H   7)    -86.04 -0.000057    0.22    -85.82   
    55. D(H   8,C   3,C   2,C   1)     92.30  0.000188    0.09     92.39   
    56. D(C   4,C   3,C   2,H   7)    168.62  0.002793   -0.50    168.12   
    57. D(C   4,C   3,C   2,C   1)    -13.03  0.003037   -0.63    -13.67   
    58. D(N  14,C   3,C   2,C   1)   -161.96 -0.004667    1.23   -160.74   
    59. D(C   5,C   4,C   3,C   2)     10.66 -0.002255    0.70     11.36   
    60. D(H   9,C   4,C   3,N  14)    -22.21  0.004251   -1.23    -23.44   
    61. D(H   9,C   4,C   3,H   8)     83.60  0.001475   -0.44     83.16   
    62. D(H   9,C   4,C   3,C   2)   -170.98 -0.001335    0.38   -170.60   
    63. D(C   5,C   4,C   3,N  14)    159.43  0.003331   -0.92    158.52   
    64. D(C   5,C   4,C   3,H   8)    -94.76  0.000555   -0.12    -94.88   
    65. D(H  10,C   5,C   4,H   9)     -0.03  0.000813   -0.06     -0.10   
    66. D(C   0,C   5,C   4,H   9)    179.06  0.001210   -0.24    178.82   
    67. D(C   0,C   5,C   4,C   3)     -2.56  0.002336   -0.58     -3.14   
    68. D(H  10,C   5,C   0,N  11)     -2.39  0.000894   -0.09     -2.47   
[...]
     34      -0.008223   0.036919   0.016609  -0.034575  -0.007014  -0.129050
     35      -0.040945   0.018582   0.079715  -0.017364  -0.032469  -0.064763
     36      -0.095771  -0.103157   0.175635   0.217168  -0.049653  -0.100442
     37       0.136076   0.158944  -0.259986  -0.409403   0.058193   0.397767
     38       0.119329   0.144643  -0.218719  -0.418703   0.032939   0.515936
     39       0.168291  -0.199704  -0.316986   0.538436   0.054478  -0.578254
     40      -0.111855   0.128745   0.219176  -0.310937  -0.052382   0.251596
     41      -0.008761   0.000651   0.013171   0.057461  -0.019130  -0.191918
     42       0.002093  -0.227417   0.013440  -0.009328   0.015407  -0.005813
     43       0.000496  -0.014467   0.004166  -0.000205   0.004803   0.001738
     44       0.001883   0.156430   0.020232   0.006376   0.023106   0.003476
     45       0.005970  -0.001126   0.000905   0.000052  -0.004583  -0.000319
     46      -0.001886  -0.031165  -0.001858  -0.000955  -0.002278  -0.000611
     47      -0.019513  -0.218689  -0.015942  -0.007701  -0.013634  -0.003475
     48      -0.021365   0.202101  -0.014876   0.007088  -0.010757   0.003164
     49      -0.002674   0.031270  -0.002464   0.001214  -0.002464   0.000453
     50      -0.002205   0.083138  -0.005013   0.002792  -0.009308   0.001666
                 42         43         44         45         46         47    
      0       0.188016   0.012839   0.000747   0.001380   0.002107   0.000661
      1      -0.178433   0.003894  -0.000386   0.001040  -0.001282   0.000010
      2      -0.090012   0.018960  -0.000425   0.002995   0.000160   0.000684
      3      -0.179420   0.010898  -0.000565  -0.062477   0.032262  -0.011497
      4       0.200752  -0.024008   0.000599   0.016070  -0.008036   0.004788
      5       0.138780  -0.029620   0.001079  -0.040372   0.021235  -0.004224
      6       0.201303  -0.018686   0.000935   0.004498  -0.002563  -0.003090
      7      -0.160283   0.012705  -0.000725   0.005558  -0.003336  -0.024446
      8      -0.053809   0.030777   0.000712   0.014351  -0.008597  -0.045171
      9      -0.039292  -0.033128  -0.002569   0.000184  -0.000244   0.001080
     10       0.039813  -0.010203  -0.079745  -0.000009   0.000100   0.000641
     11       0.018598  -0.049190   0.018214   0.000092   0.000198   0.001669
     12       0.158108   0.037609  -0.000135   0.005985   0.013629  -0.059322
     13      -0.174828  -0.007071  -0.001061  -0.000240  -0.000604   0.013296
     14      -0.119909  -0.003078  -0.000881   0.005119   0.011327  -0.033320
     15      -0.233857  -0.035662  -0.001306  -0.004379  -0.009220   0.001897
     16       0.185319   0.016654   0.000373  -0.019687  -0.037698  -0.011082
     17       0.060127  -0.006698  -0.000017  -0.033681  -0.065351  -0.015131
     18      -0.019643  -0.008533  -0.002866   0.702431  -0.360549   0.104106
     19      -0.155527   0.033746  -0.000916  -0.174611   0.089392  -0.026464
     20      -0.284773   0.026177  -0.001095   0.466485  -0.239675   0.067875
     21      -0.208476  -0.038996   0.002261  -0.022740   0.012971   0.060745
     22       0.053126   0.058605  -0.003780  -0.089756   0.052312   0.259301
     23      -0.150549   0.033318  -0.010466  -0.180255   0.105285   0.515289
     24      -0.017802   0.030720   0.039799   0.000348  -0.000142  -0.000986
     25       0.012790   0.009540   0.969429   0.000028   0.000371  -0.002418
     26       0.009513   0.046165  -0.227206   0.000382   0.000229  -0.001566
     27       0.043954   0.056402   0.010978  -0.084487  -0.185913   0.655844
     28       0.130934  -0.053580  -0.001069   0.015187   0.033277  -0.121414
     29       0.224200  -0.007580   0.002494  -0.052649  -0.115092   0.400865
     30       0.278784   0.033474   0.000032   0.058142   0.111953   0.022424
     31      -0.064288  -0.026307  -0.000024   0.220262   0.421962   0.091403
     32       0.156813   0.010529   0.003205   0.384337   0.737082   0.158058
     33      -0.099375  -0.001493  -0.000234  -0.000184  -0.000335  -0.000059
     34       0.094729  -0.000462   0.000217  -0.000166   0.000231   0.000016
     35       0.047607  -0.002213   0.000113  -0.000433  -0.000012  -0.000024
     36       0.038246  -0.006872  -0.002316   0.002221  -0.001319   0.000241
     37      -0.198900   0.007139   0.000619  -0.002002   0.002661  -0.000420
     38      -0.265707   0.008774  -0.001469  -0.001163   0.002726   0.000039
     39       0.291170   0.011889   0.000302   0.000166  -0.004134  -0.000429
     40      -0.121198  -0.005570   0.001421   0.000487   0.002790   0.000676
     41       0.109408  -0.001315   0.002411   0.001206   0.000287   0.000187
     42      -0.035064   0.453770  -0.001136   0.000117   0.000241  -0.000839
     43       0.006620   0.139361  -0.000166   0.000045   0.000048  -0.000271
     44       0.022074   0.673169   0.000800   0.000294  -0.000041  -0.001085
     45       0.001238  -0.055949   0.000042  -0.000144   0.000028   0.000437
     46      -0.003475  -0.064095  -0.000097  -0.000002   0.000002   0.000018
     47      -0.020453  -0.372028  -0.000283  -0.000075   0.000057   0.000223
     48       0.019654  -0.325319   0.000292   0.000013  -0.000041   0.000057
     49       0.002169  -0.052967  -0.000021  -0.000027  -0.000044   0.000170
     50       0.006819  -0.193536   0.000084  -0.000102  -0.000133   0.000566
                 48         49         50    
      0       0.000910   0.001617  -0.000102
      1      -0.000958  -0.001560  -0.000036
      2      -0.000565  -0.000766  -0.000163
      3       0.017070   0.000797   0.000128
      4      -0.006635  -0.001165   0.000196
      5       0.007067  -0.001146   0.000465
      6       0.004589  -0.000624  -0.000011
      7       0.032773   0.000579  -0.000008
      8       0.061526   0.000139  -0.000030
      9      -0.000548   0.000306   0.000040
     10       0.001922  -0.000677   0.000012
     11      -0.000398  -0.000067   0.000059
     12      -0.044321  -0.000478  -0.000025
     13       0.009555   0.000625  -0.000001
     14      -0.025146   0.000357  -0.000022
     15       0.000979   0.001561   0.000409
     16      -0.008837  -0.000935  -0.000031
     17      -0.012561  -0.000022   0.000327
     18      -0.156880  -0.000228  -0.001607
     19       0.040213   0.000535   0.000864
     20      -0.102595   0.000595  -0.000345
     21      -0.079994  -0.000122   0.000084
     22      -0.346947  -0.000020  -0.000007
     23      -0.689937   0.000457  -0.000027
     24       0.001833   0.000609  -0.000106
     25      -0.013984   0.002974  -0.000031
     26       0.002065  -0.001023  -0.000157
     27       0.484025  -0.000453  -0.000059
     28      -0.089559  -0.000126   0.000015
     29       0.294677  -0.000034   0.000065
     30       0.018582  -0.000702   0.000473
     31       0.075436   0.000427  -0.001219
     32       0.129951  -0.000057  -0.001350
     33      -0.000210  -0.038102  -0.048015
     34       0.000162   0.036598  -0.014644
     35       0.000113   0.018259  -0.071060
     36      -0.000661   0.580934   0.582467
     37       0.000810  -0.135533  -0.139398
     38       0.000580   0.376329   0.372168
     39      -0.000859  -0.086416   0.080937
     40       0.000573  -0.340279   0.341767
     41       0.000149  -0.613281   0.609802
     42      -0.000354  -0.000471   0.000017
     43      -0.000204   0.000072   0.000005
     44       0.000532   0.000302   0.000026
     45      -0.000338   0.000080  -0.000004
     46       0.000035  -0.000025  -0.000004
     47      -0.000254  -0.000186  -0.000027
     48       0.000076   0.000203  -0.000023
     49       0.000124   0.000012  -0.000005
     50       0.000230  -0.000003  -0.000014


-----------
IR SPECTRUM
-----------

 Mode   freq       eps      Int      T**2         TX        TY        TZ
       cm**-1   L/(mol*cm) km/mol    a.u.
----------------------------------------------------------------------------
  6:     32.59   0.000012    0.06  0.000115  (-0.007576 -0.000749 -0.007564)
  7:     63.98   0.000608    3.07  0.002965  ( 0.043935 -0.018977 -0.025975)
  8:    210.46   0.000340    1.72  0.000504  ( 0.011279 -0.000071  0.019403)
  9:    210.84   0.001031    5.21  0.001526  ( 0.009272  0.036341 -0.010924)
 10:    346.64   0.000120    0.61  0.000108  (-0.003612  0.009754  0.000414)
 11:    376.90   0.000008    0.04  0.000007  (-0.001473 -0.000399 -0.002080)
 12:    394.62   0.000104    0.52  0.000082  (-0.005009 -0.001544 -0.007376)
 13:    494.41   0.001439    7.27  0.000908  ( 0.018885  0.017024 -0.016171)
 14:    501.11   0.000241    1.22  0.000150  (-0.006728 -0.002054 -0.010033)
 15:    588.16   0.001445    7.30  0.000766  (-0.015813 -0.017592  0.014385)
 16:    602.94   0.000637    3.22  0.000330  (-0.010104 -0.003193 -0.014744)
 17:    643.11   0.015957   80.64  0.007743  ( 0.047722  0.059107 -0.044407)
 18:    645.88   0.000002    0.01  0.000001  ( 0.000874  0.000649  0.000112)
 19:    691.19   0.021434  108.32  0.009677  (-0.045711 -0.073892  0.046123)
 20:    804.06   0.000109    0.55  0.000042  ( 0.003765  0.001014  0.005189)
 21:    809.18   0.006820   34.47  0.002630  ( 0.041447 -0.017991 -0.024266)
 22:    824.10   0.003248   16.41  0.001230  (-0.018738  0.028885  0.006673)
 23:    861.55   0.021473  108.52  0.007778  (-0.069399 -0.019532  0.050795)
 24:    895.61   0.005036   25.45  0.001755  ( 0.005885 -0.041219  0.004577)
 25:    913.89   0.015770   79.69  0.005385  ( 0.061066 -0.013573 -0.038362)
 26:    974.39   0.004553   23.01  0.001458  ( 0.030088 -0.016316 -0.016930)
 27:   1004.41   0.000396    2.00  0.000123  ( 0.006061  0.001862  0.009094)
 28:   1033.57   0.000209    1.05  0.000063  ( 0.004127  0.001521  0.006604)
 29:   1034.16   0.001193    6.03  0.000360  ( 0.013991 -0.010678 -0.007092)
 30:   1092.39   0.000676    3.42  0.000193  (-0.007649 -0.002321 -0.011367)
 31:   1158.60   0.001551    7.84  0.000418  ( 0.011500  0.003364  0.016562)
 32:   1162.66   0.011771   59.48  0.003159  ( 0.046530 -0.012722 -0.028851)
 33:   1207.53   0.003056   15.45  0.000790  ( 0.017291 -0.020877 -0.007417)
 34:   1321.87   0.001029    5.20  0.000243  (-0.008666 -0.002595 -0.012691)
 35:   1381.84   0.016926   85.54  0.003823  ( 0.051437 -0.011737 -0.032234)
 36:   1395.24   0.000020    0.10  0.000005  ( 0.001416  0.000302  0.001553)
 37:   1429.92   0.040944  206.92  0.008936  (-0.077905  0.024655  0.047524)
 38:   1488.68   0.005117   25.86  0.001073  (-0.018083 -0.005538 -0.026740)
 39:   1547.21   0.004550   22.99  0.000918  (-0.022333  0.016935  0.011493)
 40:   1637.19   0.003415   17.26  0.000651  (-0.014010 -0.004339 -0.020876)
 41:   1677.72   0.026322  133.02  0.004896  (-0.048771  0.044119  0.023891)
 42:   1720.04   0.075109  379.57  0.013627  ( 0.080653 -0.074899 -0.038887)
 43:   1764.02   0.053393  269.82  0.009445  ( 0.053527  0.016422  0.079439)
 44:   2993.48   0.005740   29.01  0.000598  (-0.002141  0.024110 -0.003538)
 45:   3195.75   0.000176    0.89  0.000017  ( 0.003339 -0.000551  0.002393)
 46:   3196.59   0.000392    1.98  0.000038  (-0.003665  0.003946  0.003038)
 47:   3221.01   0.004855   24.53  0.000470  ( 0.013560  0.002492  0.016742)
 48:   3222.25   0.002470   12.48  0.000239  ( 0.009629 -0.008465 -0.008653)
 49:   3524.63   0.064839  327.67  0.005741  ( 0.052932 -0.047587 -0.025968)
 50:   3639.87   0.022030  111.33  0.001889  ( 0.024030  0.007257  0.035478)

* The epsilon (eps) is given for a Dirac delta lineshape.
** The dipole moment derivative (T) already includes vibrational overlap.

The first frequency considered to be a vibration is 6
The total number of vibrations considered is 45


--------------------------
THERMOCHEMISTRY AT 298.15K
--------------------------

Temperature         ... 298.15 K
Pressure            ... 1.00 atm
Total Mass          ... 139.13 AMU

Throughout the following assumptions are being made:
  (1) The electronic state is orbitally nondegenerate
  (2) There are no thermally accessible electronically excited states
  (3) Hindered rotations indicated by low frequency modes are not
      treated as such but are treated as vibrations and this may
      cause some error
  (4) All equations used are the standard statistical mechanics
      equations for an ideal gas
  (5) All vibrations are strictly harmonic

freq.      32.59  E(vib)   ...       0.55 
freq.      63.98  E(vib)   ...       0.51 
freq.     210.46  E(vib)   ...       0.34 
freq.     210.84  E(vib)   ...       0.34 
freq.     346.64  E(vib)   ...       0.23 
freq.     376.90  E(vib)   ...       0.21 
freq.     394.62  E(vib)   ...       0.20 
freq.     494.41  E(vib)   ...       0.14 
freq.     501.11  E(vib)   ...       0.14 
freq.     588.16  E(vib)   ...       0.10 
freq.     602.94  E(vib)   ...       0.10 
freq.     643.11  E(vib)   ...       0.09 
freq.     645.88  E(vib)   ...       0.09 
freq.     691.19  E(vib)   ...       0.07 
freq.     804.06  E(vib)   ...       0.05 
freq.     809.18  E(vib)   ...       0.05 
freq.     824.10  E(vib)   ...       0.05 
freq.     861.55  E(vib)   ...       0.04 
freq.     895.61  E(vib)   ...       0.03 
freq.     913.89  E(vib)   ...       0.03 
freq.     974.39  E(vib)   ...       0.03 
freq.    1004.41  E(vib)   ...       0.02 
freq.    1033.57  E(vib)   ...       0.02 
freq.    1034.16  E(vib)   ...       0.02 
freq.    1092.39  E(vib)   ...       0.02 
freq.    1158.60  E(vib)   ...       0.01 
freq.    1162.66  E(vib)   ...       0.01 
freq.    1207.53  E(vib)   ...       0.01 
freq.    1321.87  E(vib)   ...       0.01 
freq.    1381.84  E(vib)   ...       0.01 
freq.    1395.24  E(vib)   ...       0.00 
freq.    1429.92  E(vib)   ...       0.00 
freq.    1488.68  E(vib)   ...       0.00 
freq.    1547.21  E(vib)   ...       0.00 
freq.    1637.19  E(vib)   ...       0.00 
freq.    1677.72  E(vib)   ...       0.00 
freq.    1720.04  E(vib)   ...       0.00 
freq.    1764.02  E(vib)   ...       0.00 
freq.    2993.48  E(vib)   ...       0.00 
freq.    3195.75  E(vib)   ...       0.00 
freq.    3196.59  E(vib)   ...       0.00 
freq.    3221.01  E(vib)   ...       0.00 
freq.    3222.25  E(vib)   ...       0.00 
freq.    3524.63  E(vib)   ...       0.00 
freq.    3639.87  E(vib)   ...       0.00 

------------
INNER ENERGY
------------

The inner energy is: U= E(el) + E(ZPE) + E(vib) + E(rot) + E(trans)
    E(el)   - is the total energy from the electronic structure calculation
              = E(kin-el) + E(nuc-el) + E(el-el) + E(nuc-nuc)
    E(ZPE)  - the the zero temperature vibrational energy from the frequency calculation
    E(vib)  - the the finite temperature correction to E(ZPE) due to population
              of excited vibrational states
    E(rot)  - is the rotational thermal energy
    E(trans)- is the translational thermal energy

Summary of contributions to the inner energy U:
Electronic energy                ...   -491.83110382 Eh
Zero point energy                ...      0.13198848 Eh      82.82 kcal/mol
Thermal vibrational correction   ...      0.00561184 Eh       3.52 kcal/mol
Thermal rotational correction    ...      0.00141627 Eh       0.89 kcal/mol
Thermal translational correction ...      0.00141627 Eh       0.89 kcal/mol
-----------------------------------------------------------------------
Total thermal energy                   -491.69067096 Eh


Summary of corrections to the electronic energy:
(perhaps to be used in another calculation)
Total thermal correction                  0.00844438 Eh       5.30 kcal/mol
Non-thermal (ZPE) correction              0.13198848 Eh      82.82 kcal/mol
-----------------------------------------------------------------------
Total correction                          0.14043286 Eh      88.12 kcal/mol


--------
ENTHALPY
--------

The enthalpy is H = U + kB*T
                kB is Boltzmann's constant
Total free energy                 ...   -491.69067096 Eh 
Thermal Enthalpy correction       ...      0.00094421 Eh       0.59 kcal/mol
-----------------------------------------------------------------------
Total Enthalpy                    ...   -491.68972675 Eh


Note: Only C1 symmetry has been detected, increase convergence thresholds 
      if your molecule has a higher symmetry. Symmetry factor of 1.0 is   
      used for the rotational entropy correction. 
 

Note: Rotational entropy computed according to Herzberg 
Infrared and Raman Spectra, Chapter V,1, Van Nostrand Reinhold, 1945 
Point Group:  C1, Symmetry Number:   1  
Rotational constants in cm-1:     0.110090     0.028783     0.024031 

Vibrational entropy computed according to the QRRHO of S. Grimme
Chem.Eur.J. 2012 18 9955


-------
ENTROPY
-------

The entropy contributions are T*S = T*(S(el)+S(vib)+S(rot)+S(trans))
     S(el)   - electronic entropy
     S(vib)  - vibrational entropy
     S(rot)  - rotational entropy
     S(trans)- translational entropy
The entropies will be listed as multiplied by the temperature to get
units of energy

Electronic entropy                ...      0.00000000 Eh      0.00 kcal/mol
Vibrational entropy               ...      0.00939597 Eh      5.90 kcal/mol
Rotational entropy                ...      0.01398756 Eh      8.78 kcal/mol
Translational entropy             ...      0.01933899 Eh     12.14 kcal/mol
-----------------------------------------------------------------------
Final entropy term                ...      0.04272252 Eh     26.81 kcal/mol

In case the symmetry of your molecule has not been determined correctly
or in case you have a reason to use a different symmetry number we print 
out the resulting rotational entropy values for sn=1,12 :
 --------------------------------------------------------
|  sn= 1 | S(rot)=       0.01398756 Eh      8.78 kcal/mol|
|  sn= 2 | S(rot)=       0.01333310 Eh      8.37 kcal/mol|
|  sn= 3 | S(rot)=       0.01295027 Eh      8.13 kcal/mol|
|  sn= 4 | S(rot)=       0.01267865 Eh      7.96 kcal/mol|
|  sn= 5 | S(rot)=       0.01246796 Eh      7.82 kcal/mol|
|  sn= 6 | S(rot)=       0.01229581 Eh      7.72 kcal/mol|
|  sn= 7 | S(rot)=       0.01215027 Eh      7.62 kcal/mol|
|  sn= 8 | S(rot)=       0.01202419 Eh      7.55 kcal/mol|
|  sn= 9 | S(rot)=       0.01191298 Eh      7.48 kcal/mol|
|  sn=10 | S(rot)=       0.01181350 Eh      7.41 kcal/mol|
|  sn=11 | S(rot)=       0.01172351 Eh      7.36 kcal/mol|
|  sn=12 | S(rot)=       0.01164136 Eh      7.31 kcal/mol|
 --------------------------------------------------------


-------------------
GIBBS FREE ENERGY
-------------------

The Gibbs free energy is G = H - T*S

Total enthalpy                    ...   -491.68972675 Eh 
Total entropy correction          ...     -0.04272252 Eh    -26.81 kcal/mol
-----------------------------------------------------------------------
Final Gibbs free energy         ...   -491.73244927 Eh

For completeness - the Gibbs free energy minus the electronic energy
G-E(el)                           ...      0.09865455 Eh     61.91 kcal/mol


Timings for individual modules:

Sum of individual times         ...     5046.609 sec (=  84.110 min)
GTO integral calculation        ...       14.831 sec (=   0.247 min)   0.3 %
SCF iterations                  ...     2941.408 sec (=  49.023 min)  58.3 %
SCF Gradient evaluation         ...      766.862 sec (=  12.781 min)  15.2 %
Geometry relaxation             ...        4.045 sec (=   0.067 min)   0.1 %
Analytical frequency calculation...     1319.463 sec (=  21.991 min)  26.1 %
                             ****ORCA TERMINATED NORMALLY****
TOTAL RUN TIME: 0 days 1 hours 24 minutes 16 seconds 922 msec
