
                                 *****************
                                 * O   R   C   A *
                                 *****************

                                            #,                                       
                                            ###                                      
                                            ####                                     
                                            #####                                    
                                            ######                                   
                                           ########,                                 
                                     ,,################,,,,,                         
                               ,,#################################,,                 
                          ,,##########################################,,             
                       ,#########################################, ''#####,          
                    ,#############################################,,   '####,        
                  ,##################################################,,,,####,       
                ,###########''''           ''''###############################       
              ,#####''   ,,,,##########,,,,          '''####'''          '####       
            ,##' ,,,,###########################,,,                        '##       
           ' ,,###''''                  '''############,,,                           
         ,,##''                                '''############,,,,        ,,,,,,###''
      ,#''                                            '''#######################'''  
     '                                                          ''''####''''         
             ,#######,   #######,   ,#######,      ##                                
            ,#'     '#,  ##    ##  ,#'     '#,    #''#        ######   ,####,        
            ##       ##  ##   ,#'  ##            #'  '#       #        #'  '#        
            ##       ##  #######   ##           ,######,      #####,   #    #        
            '#,     ,#'  ##    ##  '#,     ,#' ,#      #,         ##   #,  ,#        
             '#######'   ##     ##  '#######'  #'      '#     #####' # '####'        



                  #######################################################
                  #                        -***-                        #
                  #          Department of theory and spectroscopy      #
                  #    Directorship and core code : Frank Neese         #
                  #        Max Planck Institute fuer Kohlenforschung    #
                  #                Kaiser Wilhelm Platz 1               #
                  #                 D-45470 Muelheim/Ruhr               #
                  #                      Germany                        #
                  #                                                     #
                  #                  All rights reserved                #
                  #                        -***-                        #
                  #######################################################



                         Program Version 5.0.4 -  RELEASE  -

 With contributions from (in alphabetic order):
   Daniel Aravena         : Magnetic Suceptibility
   Michael Atanasov       : Ab Initio Ligand Field Theory (pilot matlab implementation)
   Alexander A. Auer      : GIAO ZORA, VPT2 properties, NMR spectrum
   Ute Becker             : Parallelization
   Giovanni Bistoni       : ED, misc. LED, open-shell LED, HFLD
   Martin Brehm           : Molecular dynamics
   Dmytro Bykov           : SCF Hessian
   Vijay G. Chilkuri      : MRCI spin determinant printing, contributions to CSF-ICE
   Dipayan Datta          : RHF DLPNO-CCSD density
   Achintya Kumar Dutta   : EOM-CC, STEOM-CC
   Dmitry Ganyushin       : Spin-Orbit,Spin-Spin,Magnetic field MRCI
   Miquel Garcia          : C-PCM and meta-GGA Hessian, CC/C-PCM, Gaussian charge scheme
   Yang Guo               : DLPNO-NEVPT2, F12-NEVPT2, CIM, IAO-localization
   Andreas Hansen         : Spin unrestricted coupled pair/coupled cluster methods
   Benjamin Helmich-Paris : MC-RPA, TRAH-SCF, COSX integrals
   Lee Huntington         : MR-EOM, pCC
   Robert Izsak           : Overlap fitted RIJCOSX, COSX-SCS-MP3, EOM
   Marcus Kettner         : VPT2
   Christian Kollmar      : KDIIS, OOCD, Brueckner-CCSD(T), CCSD density, CASPT2, CASPT2-K
   Simone Kossmann        : Meta GGA functionals, TD-DFT gradient, OOMP2, MP2 Hessian
   Martin Krupicka        : Initial AUTO-CI
   Lucas Lang             : DCDCAS
   Marvin Lechner         : AUTO-CI (C++ implementation), FIC-MRCC
   Dagmar Lenk            : GEPOL surface, SMD
   Dimitrios Liakos       : Extrapolation schemes; Compound Job, initial MDCI parallelization
   Dimitrios Manganas     : Further ROCIS development; embedding schemes
   Dimitrios Pantazis     : SARC Basis sets
   Anastasios Papadopoulos: AUTO-CI, single reference methods and gradients
   Taras Petrenko         : DFT Hessian,TD-DFT gradient, ASA, ECA, R-Raman, ABS, FL, XAS/XES, NRVS
   Peter Pinski           : DLPNO-MP2, DLPNO-MP2 Gradient
   Christoph Reimann      : Effective Core Potentials
   Marius Retegan         : Local ZFS, SOC
   Christoph Riplinger    : Optimizer, TS searches, QM/MM, DLPNO-CCSD(T), (RO)-DLPNO pert. Triples
   Tobias Risthaus        : Range-separated hybrids, TD-DFT gradient, RPA, STAB
   Michael Roemelt        : Original ROCIS implementation
   Masaaki Saitow         : Open-shell DLPNO-CCSD energy and density
   Barbara Sandhoefer     : DKH picture change effects
   Avijit Sen             : IP-ROCIS
   Kantharuban Sivalingam : CASSCF convergence, NEVPT2, FIC-MRCI
   Bernardo de Souza      : ESD, SOC TD-DFT
   Georgi Stoychev        : AutoAux, RI-MP2 NMR, DLPNO-MP2 response
   Willem Van den Heuvel  : Paramagnetic NMR
   Boris Wezisla          : Elementary symmetry handling
   Frank Wennmohs         : Technical directorship


 We gratefully acknowledge several colleagues who have allowed us to
 interface, adapt or use parts of their codes:
   Stefan Grimme, W. Hujo, H. Kruse, P. Pracht,  : VdW corrections, initial TS optimization,
                  C. Bannwarth, S. Ehlert          DFT functionals, gCP, sTDA/sTD-DF
   Ed Valeev, F. Pavosevic, A. Kumar             : LibInt (2-el integral package), F12 methods
   Garnet Chan, S. Sharma, J. Yang, R. Olivares  : DMRG
   Ulf Ekstrom                                   : XCFun DFT Library
   Mihaly Kallay                                 : mrcc  (arbitrary order and MRCC methods)
   Jiri Pittner, Ondrej Demel                    : Mk-CCSD
   Frank Weinhold                                : gennbo (NPA and NBO analysis)
   Christopher J. Cramer and Donald G. Truhlar   : smd solvation model
   Lars Goerigk                                  : TD-DFT with DH, B97 family of functionals
   V. Asgeirsson, H. Jonsson                     : NEB implementation
   FAccTs GmbH                                   : IRC, NEB, NEB-TS, DLPNO-Multilevel, CI-OPT
                                                   MM, QMMM, 2- and 3-layer-ONIOM, Crystal-QMMM,
                                                   LR-CPCM, SF, NACMEs, symmetry and pop. for TD-DFT,
                                                   nearIR, NL-DFT gradient (VV10), updates on ESD,
                                                   ML-optimized integration grids
   S Lehtola, MJT Oliveira, MAL Marques          : LibXC Library
   Liviu Ungur et al                             : ANISO software


 Your calculation uses the libint2 library for the computation of 2-el integrals
 For citations please refer to: http://libint.valeyev.net

 Your ORCA version has been built with support for libXC version: 5.1.0
 For citations please refer to: https://tddft.org/programs/libxc/

 This ORCA versions uses:
   CBLAS   interface :  Fast vector & matrix operations
   LAPACKE interface :  Fast linear algebra routines
   Shared memory     :  Shared parallel matrices


Your calculation utilizes the atom-pairwise dispersion correction
based on tight binding partial charges (D4)
Cite in your paper:
E.Caldeweyher, C.Bannwarth, S.Grimme, J.Chem.Phys., (2017), 147, 034112.
E.Caldeweyher, S.Ehlert, A.Hansen, H.Neugebauer, S.Grimme, J.Chem.Phys., (2018), in progress.
   

================================================================================

----- Orbital basis set information -----
Your calculation utilizes the basis: def2-SVP
   F. Weigend and R. Ahlrichs, Phys. Chem. Chem. Phys. 7, 3297 (2005).

----- AuxJ basis set information -----
Your calculation utilizes the auxiliary basis: def2/J
   F. Weigend, Phys. Chem. Chem. Phys. 8, 1057 (2006).

================================================================================
                                        WARNINGS
                       Please study these warnings very carefully!
================================================================================


WARNING: Geometry Optimization
  ===> : Switching off AutoStart
         For restart on a previous wavefunction, please use MOREAD

INFO   : the flag for use of the SHARK integral package has been found!

================================================================================
                                       INPUT FILE
================================================================================
NAME = a_o.inp
|  1> !B3LYP DEF2-SVP OPT FREQ D4 SOSCF
|  2> 
|  3> %method
|  4> ScanGuess Hueckel
|  5> end
|  6> 
|  7> * xyz 1 1
|  8>    C       -3.41158        0.75498       -0.04706
|  9>    C       -4.59891        0.02220       -0.03110
| 10>    C       -4.55882       -1.37093        0.00154
| 11>    C       -3.33276       -2.03370        0.01801
| 12>    C       -2.14610       -1.30273        0.00151
| 13>    C       -2.18476        0.09043       -0.03114
| 14>    H       -5.55927        0.53271       -0.04449
| 15>    H       -5.48475       -1.94054        0.01383
| 16>    H       -3.30205       -3.12027        0.04327
| 17>    H       -1.18947       -1.81913        0.01378
| 18>    H       -1.25477        0.65437       -0.04454
| 19>    N       -3.45014        2.11918       -0.07872
| 20>    H       -4.33362        2.58636        0.09225
| 21>    H       -2.59440        2.63549        0.09211
| 22>    N        6.52996        3.95513       -1.45976
| 23>    O        5.72285        4.85519       -1.47124
| 24>    O        6.18980        2.96195       -0.86013
| 25> **                         ****END OF INPUT****
================================================================================

                       *****************************
                       * Geometry Optimization Run *
                       *****************************

Geometry optimization settings:
Update method            Update   .... BFGS
Choice of coordinates    CoordSys .... Z-matrix Internals
Initial Hessian          InHess   .... Almoef's Model

Convergence Tolerances:
Energy Change            TolE     ....  5.0000e-06 Eh
Max. Gradient            TolMAXG  ....  3.0000e-04 Eh/bohr
RMS Gradient             TolRMSG  ....  1.0000e-04 Eh/bohr
Max. Displacement        TolMAXD  ....  4.0000e-03 bohr
RMS Displacement         TolRMSD  ....  2.0000e-03 bohr
Strict Convergence                ....  False
------------------------------------------------------------------------------
                        ORCA OPTIMIZATION COORDINATE SETUP
------------------------------------------------------------------------------

The optimization will be done in new redundant internal coordinates
Making redundant internal coordinates   ...  (new redundants) done
Evaluating the initial hessian          ...  (Almloef) done
Evaluating the coordinates              ...  done
Calculating the B-matrix                .... done
Calculating the G-matrix                .... done
Diagonalizing the G-matrix              .... done
The first mode is                       ....   40
The number of degrees of freedom        ....   45

    -----------------------------------------------------------------
                    Redundant Internal Coordinates


    -----------------------------------------------------------------
         Definition                    Initial Value    Approx d2E/dq
    -----------------------------------------------------------------
      1. B(C   1,C   0)                  1.3953         0.612659   
      2. B(C   2,C   1)                  1.3941         0.615482   
      3. B(C   3,C   2)                  1.3938         0.616070   
      4. B(C   4,C   3)                  1.3938         0.616076   
      5. B(C   5,C   4)                  1.3941         0.615505   
      6. B(C   5,C   0)                  1.3953         0.612664   
      7. B(H   6,C   1)                  1.0877         0.363156   
      8. B(H   7,C   2)                  1.0872         0.363854   
      9. B(H   8,C   3)                  1.0873         0.363693   
     10. B(H   9,C   4)                  1.0872         0.363850   
     11. B(H  10,C   5)                  1.0877         0.363157   
     12. B(N  11,C   0)                  1.3651         0.613172   
     13. B(H  12,N  11)                  1.0139         0.426528   
     14. B(H  13,N  11)                  1.0139         0.426509   
     15. B(N  14,H  10)                  8.5732         0.000000   
     16. B(O  15,N  14)                  1.2090         0.974532   
     17. B(O  15,H  13)                  8.7492         0.000000   
     18. B(O  15,H  10)                  8.2686         0.000000   
     19. B(O  16,H  13)                  8.8417         0.000000   
     20. B(O  16,H  10)                  7.8366         0.000000   
     21. B(O  16,H   9)                  8.8361         0.000000   
     22. B(O  16,C   5)                  8.8919         0.000000   
     23. B(O  16,N  14)                  1.2090         0.974524   
     24. A(C   1,C   0,N  11)          120.0689         0.429451   
     25. A(C   5,C   0,N  11)          120.0693         0.429452   
     26. A(C   1,C   0,C   5)          119.8619         0.432211   
     27. A(C   0,C   1,H   6)          120.3101         0.352702   
     28. A(C   2,C   1,H   6)          119.6502         0.352977   
     29. A(C   0,C   1,C   2)          120.0396         0.432568   
     30. A(C   3,C   2,H   7)          119.9936         0.353149   
     31. A(C   1,C   2,H   7)          119.9568         0.353092   
     32. A(C   1,C   2,C   3)          120.0495         0.433000   
     33. A(C   4,C   3,H   8)          120.0206         0.353123   
     34. A(C   2,C   3,H   8)          120.0201         0.353122   
     35. A(C   2,C   3,C   4)          119.9592         0.433075   
     36. A(C   5,C   4,H   9)          119.9566         0.353093   
     37. A(C   3,C   4,C   5)          120.0500         0.433003   
     38. A(C   3,C   4,H   9)          119.9934         0.353149   
     39. A(C   0,C   5,H  10)          120.3099         0.352703   
     40. A(C   0,C   5,C   4)          120.0397         0.432571   
     41. A(H  10,C   5,O  16)           13.1339         0.089501   
     42. A(C   4,C   5,O  16)          107.3849         0.089652   
     43. A(C   0,C   5,O  16)          132.3150         0.089652   
     44. A(C   4,C   5,H  10)          119.6504         0.352979   
     45. A(H  12,N  11,H  13)          118.1882         0.301864   
     46. A(C   0,N  11,H  13)          118.7592         0.357116   
     47. A(C   0,N  11,H  12)          118.7614         0.357119   
     48. A(O  15,N  14,O  16)          115.3695         0.498554   
     49. A(C   5,O  16,N  14)          125.2059         0.089712   
     50. D(H   6,C   1,C   0,C   5)   -179.9299         0.025936   
     51. D(H   6,C   1,C   0,N  11)      0.0441         0.025936   
     52. D(C   2,C   1,C   0,N  11)   -179.9854         0.025936   
     53. D(C   2,C   1,C   0,C   5)      0.0406         0.025936   
     54. D(C   3,C   2,C   1,H   6)    179.9581         0.026190   
     55. D(C   3,C   2,C   1,C   0)     -0.0126         0.026190   
     56. D(H   7,C   2,C   1,C   0)   -179.9931         0.026190   
     57. D(H   7,C   2,C   1,H   6)     -0.0224         0.026190   
     58. D(H   8,C   3,C   2,H   7)     -0.0075         0.026243   
     59. D(H   8,C   3,C   2,C   1)   -179.9880         0.026243   
     60. D(C   4,C   3,C   2,H   7)    179.9655         0.026243   
     61. D(C   4,C   3,C   2,C   1)     -0.0150         0.026243   
     62. D(H   9,C   4,C   3,C   2)   -179.9657         0.026244   
     63. D(C   5,C   4,C   3,H   8)    179.9875         0.026244   
     64. D(C   5,C   4,C   3,C   2)      0.0145         0.026244   
     65. D(H   9,C   4,C   3,H   8)      0.0073         0.026244   
     66. D(O  16,C   5,C   4,H   9)      5.1587         0.028460   
     67. D(H  10,C   5,C   4,H   9)      0.0213         0.028460   
     68. D(H  10,C   5,C   4,C   3)   -179.9589         0.028460   
     69. D(C   0,C   5,C   4,H   9)    179.9938         0.028460   
     70. D(C   0,C   5,C   4,C   3)      0.0136         0.028460   
     71. D(O  16,C   5,C   0,N  11)     -6.6868         0.028181   
     72. D(O  16,C   5,C   0,C   1)    173.2872         0.028181   
     73. D(H  10,C   5,C   0,N  11)     -0.0428         0.028181   
     74. D(H  10,C   5,C   0,C   1)    179.9312         0.028181   
     75. D(O  16,C   5,C   4,C   3)   -174.8216         0.028460   
     76. D(C   4,C   5,C   0,N  11)    179.9849         0.028181   
     77. D(C   4,C   5,C   0,C   1)     -0.0411         0.028181   
     78. D(H  13,N  11,C   0,C   1)    168.1841         0.030393   
     79. D(H  12,N  11,C   0,C   5)   -168.1763         0.030393   
     80. D(H  12,N  11,C   0,C   1)     11.8497         0.030393   
     81. D(H  13,N  11,C   0,C   5)    -11.8419         0.030393   
     82. D(C   5,O  16,N  14,O  15)     30.7552         0.119757   
     83. D(N  14,O  16,C   5,H  10)    -53.2234         0.001500   
     84. D(N  14,O  16,C   5,C   4)    146.8042         0.001500   
     85. D(N  14,O  16,C   5,C   0)    -27.1463         0.001500   
    -----------------------------------------------------------------

Number of atoms                         .... 17
Number of degrees of freedom            .... 85

         *************************************************************
         *                GEOMETRY OPTIMIZATION CYCLE   1            *
         *************************************************************
---------------------------------
CARTESIAN COORDINATES (ANGSTROEM)
---------------------------------
  C     -3.411580    0.754980   -0.047060
  C     -4.598910    0.022200   -0.031100
  C     -4.558820   -1.370930    0.001540
  C     -3.332760   -2.033700    0.018010
  C     -2.146100   -1.302730    0.001510
  C     -2.184760    0.090430   -0.031140
  H     -5.559270    0.532710   -0.044490
  H     -5.484750   -1.940540    0.013830
  H     -3.302050   -3.120270    0.043270
  H     -1.189470   -1.819130    0.013780
  H     -1.254770    0.654370   -0.044540
  N     -3.450140    2.119180   -0.078720
  H     -4.333620    2.586360    0.092250
  H     -2.594400    2.635490    0.092110
  N      6.529960    3.955130   -1.459760
  O      5.722850    4.855190   -1.471240
  O      6.189800    2.961950   -0.860130

----------------------------
CARTESIAN COORDINATES (A.U.)
----------------------------
  NO LB      ZA    FRAG     MASS         X           Y           Z
   0 C     6.0000    0    12.011   -6.446952    1.426705   -0.088931
   1 C     6.0000    0    12.011   -8.690680    0.041952   -0.058770
   2 C     6.0000    0    12.011   -8.614921   -2.590682    0.002910
   3 C     6.0000    0    12.011   -6.298004   -3.843136    0.034034
   4 C     6.0000    0    12.011   -4.055541   -2.461803    0.002853
   5 C     6.0000    0    12.011   -4.128598    0.170888   -0.058846
   6 H     1.0000    0     1.008  -10.505498    1.006676   -0.084074
   7 H     1.0000    0     1.008  -10.364675   -3.667089    0.026135
   8 H     1.0000    0     1.008   -6.239970   -5.896456    0.081768
   9 H     1.0000    0     1.008   -2.247773   -3.437658    0.026040
  10 H     1.0000    0     1.008   -2.371172    1.236580   -0.084168
  11 N     7.0000    0    14.007   -6.519820    4.004670   -0.148759
  12 H     1.0000    0     1.008   -8.189355    4.887512    0.174327
  13 H     1.0000    0     1.008   -4.902705    4.980354    0.174063
  14 N     7.0000    0    14.007   12.339836    7.474113   -2.758547
  15 O     8.0000    0    15.999   10.814619    9.174979   -2.780241
  16 O     8.0000    0    15.999   11.697027    5.597274   -1.625410

--------------------------------
INTERNAL COORDINATES (ANGSTROEM)
--------------------------------
 C      0   0   0     0.000000000000     0.00000000     0.00000000
 C      1   0   0     1.395340022683     0.00000000     0.00000000
 C      2   1   0     1.394088868975   120.03962000     0.00000000
 C      3   2   1     1.393828704468   120.04953713     0.00000000
 C      4   3   2     1.393826153615   119.95921681     0.00000000
 C      5   4   3     1.394078693511   120.05002770     0.00000000
 H      2   1   3     1.087699904293   120.31013525   180.02948761
 H      3   2   1     1.087176600696   119.95683749   180.00688140
 H      4   3   2     1.087297354269   120.02013585   180.01199171
 H      5   4   3     1.087180053993   119.99341616   180.03428239
 H      6   5   4     1.087699077732   119.65041710   180.04107809
 N      1   2   3     1.365112035402   120.06888563   180.01461791
 H     12   1   2     1.013915580164   118.76135405    11.84968876
 H     12   1   2     1.013927932646   118.75923584   168.18409492
 N     11   6   5     8.573207416067   167.96520585    48.36294805
 O     15  11   6     1.208993939646    71.45828264   129.71626993
 O     15  11   6     1.208996060746    49.18376220   282.19109115

---------------------------
INTERNAL COORDINATES (A.U.)
---------------------------
 C      0   0   0     0.000000000000     0.00000000     0.00000000
 C      1   0   0     2.636810506570     0.00000000     0.00000000
 C      2   1   0     2.634446168711   120.03962000     0.00000000
 C      3   2   1     2.633954529043   120.04953713     0.00000000
 C      4   3   2     2.633949708628   119.95921681     0.00000000
 C      5   4   3     2.634426939870   120.05002770     0.00000000
 H      2   1   3     2.055454935007   120.31013525   180.02948761
 H      3   2   1     2.054466034522   119.95683749   180.00688140
 H      4   3   2     2.054694225705   120.02013585   180.01199171
 H      5   4   3     2.054472560308   119.99341616   180.03428239
 H      6   5   4     2.055453373033   119.65041710   180.04107809
 N      1   2   3     2.579687889030   120.06888563   180.01461791
 H     12   1   2     1.916022769426   118.76135405    11.84968876
 H     12   1   2     1.916046112234   118.75923584   168.18409492
 N     11   6   5    16.201014105669   167.96520585    48.36294805
 O     15  11   6     2.284667443501    71.45828264   129.71626993
 O     15  11   6     2.284671451800    49.18376220   282.19109115

---------------------
BASIS SET INFORMATION
---------------------
There are 4 groups of distinct atoms

 Group   1 Type C   : 7s4p1d contracted to 3s2p1d pattern {511/31/1}
 Group   2 Type H   : 4s1p contracted to 2s1p pattern {31/1}
 Group   3 Type N   : 7s4p1d contracted to 3s2p1d pattern {511/31/1}
 Group   4 Type O   : 7s4p1d contracted to 3s2p1d pattern {511/31/1}

Atom   0C    basis set group =>   1
Atom   1C    basis set group =>   1
Atom   2C    basis set group =>   1
Atom   3C    basis set group =>   1
Atom   4C    basis set group =>   1
Atom   5C    basis set group =>   1
Atom   6H    basis set group =>   2
Atom   7H    basis set group =>   2
Atom   8H    basis set group =>   2
Atom   9H    basis set group =>   2
Atom  10H    basis set group =>   2
Atom  11N    basis set group =>   3
Atom  12H    basis set group =>   2
Atom  13H    basis set group =>   2
Atom  14N    basis set group =>   3
Atom  15O    basis set group =>   4
Atom  16O    basis set group =>   4
---------------------------------
AUXILIARY/J BASIS SET INFORMATION
---------------------------------
There are 4 groups of distinct atoms

 Group   1 Type C   : 12s5p4d2f1g contracted to 6s4p3d1f1g pattern {711111/2111/211/2/1}
 Group   2 Type H   : 5s2p1d contracted to 3s1p1d pattern {311/2/1}
 Group   3 Type N   : 12s5p4d2f1g contracted to 6s4p3d1f1g pattern {711111/2111/211/2/1}
 Group   4 Type O   : 12s5p4d2f1g contracted to 6s4p3d1f1g pattern {711111/2111/211/2/1}

Atom   0C    basis set group =>   1
Atom   1C    basis set group =>   1
Atom   2C    basis set group =>   1
Atom   3C    basis set group =>   1
Atom   4C    basis set group =>   1
Atom   5C    basis set group =>   1
Atom   6H    basis set group =>   2
Atom   7H    basis set group =>   2
Atom   8H    basis set group =>   2
Atom   9H    basis set group =>   2
Atom  10H    basis set group =>   2
Atom  11N    basis set group =>   3
Atom  12H    basis set group =>   2
Atom  13H    basis set group =>   2
Atom  14N    basis set group =>   3
Atom  15O    basis set group =>   4
Atom  16O    basis set group =>   4
------------------------------------------------------------------------------
                           ORCA GTO INTEGRAL CALCULATION
                           -- RI-GTO INTEGRALS CHOSEN --
------------------------------------------------------------------------------
------------------------------------------------------------------------------
                   ___                                                        
                  /   \      - P O W E R E D   B Y -                         
                 /     \                                                     
                 |  |  |   _    _      __       _____    __    __             
                 |  |  |  | |  | |    /  \     |  _  \  |  |  /  |          
                  \  \/   | |  | |   /    \    | | | |  |  | /  /          
                 / \  \   | |__| |  /  /\  \   | |_| |  |  |/  /          
                |  |  |   |  __  | /  /__\  \  |    /   |      \           
                |  |  |   | |  | | |   __   |  |    \   |  |\   \          
                \     /   | |  | | |  |  |  |  | |\  \  |  | \   \       
                 \___/    |_|  |_| |__|  |__|  |_| \__\ |__|  \__/        
                                                                              
                      - O R C A' S   B I G   F R I E N D -                    
                                      &                                       
                       - I N T E G R A L  F E E D E R -                       
                                                                              
 v1 FN, 2020, v2 2021                                                         
------------------------------------------------------------------------------


Reading SHARK input file a_o.SHARKINP.tmp ... ok
----------------------
SHARK INTEGRAL PACKAGE
----------------------

Number of atoms                             ...     17
Number of basis functions                   ...    175
Number of shells                            ...     81
Maximum angular momentum                    ...      2
Integral batch strategy                     ... SHARK/LIBINT Hybrid
RI-J (if used) integral strategy            ... SPLIT-RIJ (Revised 2003 algorithm where possible)
Printlevel                                  ...      1
Contraction scheme used                     ... SEGMENTED contraction
Coulomb Range Separation                    ... NOT USED
Exchange Range Separation                   ... NOT USED
Finite Nucleus Model                        ... NOT USED
Auxiliary Coulomb fitting basis             ... AVAILABLE
   # of basis functions in Aux-J            ...    567
   # of shells in Aux-J                     ...    185
   Maximum angular momentum in Aux-J        ...      4
Auxiliary J/K fitting basis                 ... NOT available
Auxiliary Correlation fitting basis         ... NOT available
Auxiliary 'external' fitting basis          ... NOT available
Integral threshold                          ...     2.500000e-11
Primitive cut-off                           ...     2.500000e-12
Primitive pair pre-selection threshold      ...     2.500000e-12

Calculating pre-screening integrals         ... done (  0.2 sec) Dimension = 81
Organizing shell pair data                  ... done (  0.1 sec)
Shell pair information
Total number of shell pairs                 ...      3321
Shell pairs after pre-screening             ...      2145
Total number of primitive shell pairs       ...     12241
Primitive shell pairs kept                  ...      5948
          la=0 lb=0:    662 shell pairs
          la=1 lb=0:    775 shell pairs
          la=1 lb=1:    245 shell pairs
          la=2 lb=0:    267 shell pairs
          la=2 lb=1:    162 shell pairs
          la=2 lb=2:     34 shell pairs

Calculating one electron integrals          ... done (  0.1 sec)
Calculating RI/J V-Matrix + Cholesky decomp.... done (  0.1 sec)
Calculating Nuclear repulsion               ... done (  0.0 sec) ENN=    396.237561876285 Eh

SHARK setup successfully completed in   0.9 seconds

Maximum memory used throughout the entire GTOINT-calculation: 18.7 MB
-------------------------------------------------------------------------------
                                 ORCA SCF
-------------------------------------------------------------------------------

------------
SCF SETTINGS
------------
Hamiltonian:
 Density Functional     Method          .... DFT(GTOs)
 Exchange Functional    Exchange        .... B88
   X-Alpha parameter    XAlpha          ....  0.666667
   Becke's b parameter  XBeta           ....  0.004200
 Correlation Functional Correlation     .... LYP
 LDA part of GGA corr.  LDAOpt          .... VWN-5
 Gradients option       PostSCFGGA      .... off
 Hybrid DFT is turned on
   Fraction HF Exchange ScalHFX         ....  0.200000
   Scaling of DF-GGA-X  ScalDFX         ....  0.720000
   Scaling of DF-GGA-C  ScalDFC         ....  0.810000
   Scaling of DF-LDA-C  ScalLDAC        ....  1.000000
   Perturbative correction              ....  0.000000
   Density functional embedding theory  .... OFF
   NL short-range parameter             ....  4.800000
 RI-approximation to the Coulomb term is turned on
   Number of AuxJ basis functions       .... 567
   RIJ-COSX (HFX calculated with COS-X)).... on


General Settings:
 Integral files         IntName         .... a_o
 Hartree-Fock type      HFTyp           .... RHF
 Total Charge           Charge          ....    1
 Multiplicity           Mult            ....    1
 Number of Electrons    NEL             ....   72
 Basis Dimension        Dim             ....  175
 Nuclear Repulsion      ENuc            ....    396.2375618763 Eh

Convergence Acceleration:
 DIIS                   CNVDIIS         .... on
   Start iteration      DIISMaxIt       ....    12
   Startup error        DIISStart       ....  0.200000
   # of expansion vecs  DIISMaxEq       ....     5
   Bias factor          DIISBfac        ....   1.050
   Max. coefficient     DIISMaxC        ....  10.000
 Trust-Rad. Augm. Hess. CNVTRAH         .... auto
   Auto Start mean grad. ratio tolernc. ....  1.125000
   Auto Start start iteration           ....    20
   Auto Start num. interpolation iter.  ....    10
   Max. Number of Micro iterations      ....    16
   Max. Number of Macro iterations      .... Maxiter - #DIIS iter
   Number of Davidson start vectors     ....     2
   Converg. threshold I  (grad. norm)   ....   1.000e-05
   Converg. threshold II (energy diff.) ....   1.000e-08
   Grad. Scal. Fac. for Micro threshold ....   0.100
   Minimum threshold for Micro iter.    ....   0.010
   NR start threshold (gradient norm)   ....   0.001
   Initial trust radius                 ....   0.400
   Minimum AH scaling param. (alpha)    ....   1.000
   Maximum AH scaling param. (alpha)    .... 1000.000
   Orbital update algorithm             .... Taylor
   White noise on init. David. guess    .... on
   Maximum white noise                  ....   0.010
   Quad. conv. algorithm                .... NR
 SOSCF                  CNVSOSCF        .... on
   Start iteration      SOSCFMaxIt      ....   150
   Startup grad/error   SOSCFStart      ....  0.003300
 Level Shifting         CNVShift        .... on
   Level shift para.    LevelShift      ....    0.2500
   Turn off err/grad.   ShiftErr        ....    0.0010
 Zerner damping         CNVZerner       .... off
 Static damping         CNVDamp         .... on
   Fraction old density DampFac         ....    0.7000
   Max. Damping (<1)    DampMax         ....    0.9800
   Min. Damping (>=0)   DampMin         ....    0.0000
   Turn off err/grad.   DampErr         ....    0.1000
 Fernandez-Rico         CNVRico         .... off

SCF Procedure:
 Maximum # iterations   MaxIter         ....   125
 SCF integral mode      SCFMode         .... Direct
   Integral package                     .... SHARK and LIBINT hybrid scheme
 Reset frequency        DirectResetFreq ....    20
 Integral Threshold     Thresh          ....  2.500e-11 Eh
 Primitive CutOff       TCut            ....  2.500e-12 Eh

Convergence Tolerance:
 Convergence Check Mode ConvCheckMode   .... Total+1el-Energy
 Convergence forced     ConvForced      .... 0
 Energy Change          TolE            ....  1.000e-08 Eh
 1-El. energy change                    ....  1.000e-05 Eh
 Orbital Gradient       TolG            ....  1.000e-05
 Orbital Rotation angle TolX            ....  1.000e-05
 DIIS Error             TolErr          ....  5.000e-07


Diagonalization of the overlap matrix:
Smallest eigenvalue                        ... 2.805e-04
Time for diagonalization                   ...    0.015 sec
Threshold for overlap eigenvalues          ... 1.000e-08
Number of eigenvalues below threshold      ... 0
Time for construction of square roots      ...    0.012 sec
Total time needed                          ...    0.028 sec

Time for model grid setup =    0.877 sec

------------------------------
INITIAL GUESS: MODEL POTENTIAL
------------------------------
Loading Hartree-Fock densities                     ... done
Calculating cut-offs                               ... done
Initializing the effective Hamiltonian             ... done
Setting up the integral package (SHARK)            ... done
Starting the Coulomb interaction                   ... done (   1.0 sec)
Reading the grid                                   ... done
Mapping shells                                     ... done
Starting the XC term evaluation                    ... done (   1.0 sec)
  promolecular density results
     # of electrons  =     72.996064129
     EX              =    -62.423712512
     EC              =     -2.493967549
     EX+EC           =    -64.917680062
Transforming the Hamiltonian                       ... done (   0.0 sec)
Diagonalizing the Hamiltonian                      ... done (   0.0 sec)
Back transforming the eigenvectors                 ... done (   0.0 sec)
Now organizing SCF variables                       ... done
                      ------------------
                      INITIAL GUESS DONE (   2.9 sec)
                      ------------------
-------------------
DFT GRID GENERATION
-------------------

General Integration Accuracy     IntAcc      ... 4.388
Radial Grid Type                 RadialGrid  ... OptM3 with GC (2021)
Angular Grid (max. ang.)         AngularGrid ... 4 (Lebedev-302)
Angular grid pruning method      GridPruning ... 4 (adaptive)
Weight generation scheme         WeightScheme... Becke
Basis function cutoff            BFCut       ... 1.0000e-11
Integration weight cutoff        WCut        ... 1.0000e-14
Angular grids for H and He will be reduced by one unit
Partially contracted basis set               ... off
Rotationally invariant grid construction     ... off

Total number of grid points                  ...    83079
Total number of batches                      ...     1304
Average number of points per batch           ...       63
Average number of grid points per atom       ...     4887
Time for grid setup =    3.924 sec

--------------------
COSX GRID GENERATION
--------------------

GRIDX 1
-------
General Integration Accuracy     IntAcc      ... 3.816
Radial Grid Type                 RadialGrid  ... OptM3 with GC (2021)
Angular Grid (max. ang.)         AngularGrid ... 1 (Lebedev-50)
Angular grid pruning method      GridPruning ... 4 (adaptive)
Weight generation scheme         WeightScheme... Becke
Basis function cutoff            BFCut       ... 1.0000e-11
Integration weight cutoff        WCut        ... 1.0000e-14
Angular grids for H and He will be reduced by one unit
Partially contracted basis set               ... on
Rotationally invariant grid construction     ... off

Total number of grid points                  ...    10607
Total number of batches                      ...      172
Average number of points per batch           ...       61
Average number of grid points per atom       ...      624
UseSFitting                                  ... on

GRIDX 2
-------
General Integration Accuracy     IntAcc      ... 4.020
Radial Grid Type                 RadialGrid  ... OptM3 with GC (2021)
Angular Grid (max. ang.)         AngularGrid ... 2 (Lebedev-110)
Angular grid pruning method      GridPruning ... 4 (adaptive)
Weight generation scheme         WeightScheme... Becke
Basis function cutoff            BFCut       ... 1.0000e-11
Integration weight cutoff        WCut        ... 1.0000e-14
Angular grids for H and He will be reduced by one unit
Partially contracted basis set               ... on
Rotationally invariant grid construction     ... off

Total number of grid points                  ...    23608
Total number of batches                      ...      377
Average number of points per batch           ...       62
Average number of grid points per atom       ...     1389
UseSFitting                                  ... on

GRIDX 3
-------
General Integration Accuracy     IntAcc      ... 4.338
Radial Grid Type                 RadialGrid  ... OptM3 with GC (2021)
Angular Grid (max. ang.)         AngularGrid ... 3 (Lebedev-194)
Angular grid pruning method      GridPruning ... 4 (adaptive)
Weight generation scheme         WeightScheme... Becke
Basis function cutoff            BFCut       ... 1.0000e-11
Integration weight cutoff        WCut        ... 1.0000e-14
Angular grids for H and He will be reduced by one unit
Partially contracted basis set               ... on
Rotationally invariant grid construction     ... off

Total number of grid points                  ...    52100
Total number of batches                      ...      821
Average number of points per batch           ...       63
Average number of grid points per atom       ...     3065
UseSFitting                                  ... on

Time for X-Grid setup             =    4.171 sec

--------------
SCF ITERATIONS
--------------
ITER       Energy         Delta-E        Max-DP      RMS-DP      [F,P]     Damp
               ***  Starting incremental Fock matrix formation  ***
  0   -491.2002515463   0.000000000000 0.28521520  0.00521136  0.2366921 0.7000
  1   -491.3901218348  -0.189870288539 0.11039746  0.00277794  0.1152005 0.7000
                               ***Turning on DIIS***
  2   -491.4000780101  -0.009956175280 0.22019180  0.00652530  0.0729018 0.0000
  3   -491.3615289532   0.038549056922 0.01665769  0.00039631  0.1855441 0.7000
  4   -491.3925967100  -0.031067756780 0.01438437  0.00037816  0.1649877 0.7000
  5   -491.4195507091  -0.026953999107 0.01347693  0.00034291  0.1468760 0.7000
  6   -491.4422113599  -0.022660650785 0.01249899  0.00030370  0.1320752 0.7000
  7   -491.4607562487  -0.018544888776 0.10588692  0.00308446  0.1198885 0.7000
  8   -491.6744295594  -0.213673310727 0.26178902  0.00711327  0.0282568 0.0000
  9   -491.2418154585   0.432614100852 0.00997015  0.00016782  0.1566140 0.7000
 10   -491.2504134410  -0.008597982478 0.01057797  0.00017942  0.1525719 0.7000
 11   -491.2589718199  -0.008558378907 0.00890212  0.00015107  0.1484569 0.7000
 12   -491.2659608522  -0.006989032333 0.00683526  0.00011662  0.1449986 0.7000
 13   -491.2712711343  -0.005310282009 0.23665246  0.00625141  0.1423131 0.7000
 14   -491.1630227623   0.108248371969 0.16457279  0.00448939  0.1164425 0.7000
 15   -489.8981466388   1.264876123442 0.09210301  0.00305359  0.2201082 0.7000
 16   -489.5791736755   0.318972963393 0.10076348  0.00297889  0.2178788 0.7000
 17   -490.2725927172  -0.693419041773 0.07227518  0.00207628  0.1586407 0.7000
 18   -490.6902385808  -0.417645863612 0.05241417  0.00146034  0.1488853 0.7000
 19   -490.9500078458  -0.259769264985 0.21701814  0.00439625  0.1459112 0.7000
               *** Restarting incremental Fock matrix formation ***
                                   *** Resetting DIIS ***

 WARNING: the maximum gradient error descreased on average only by a factor   1.1
          during the last 20 iterations

                      *** Initiating the TRAH-SCF procedure ***


TRAH GRIDX
----------

General Integration Accuracy     IntAcc      ... 3.067
Radial Grid Type                 RadialGrid  ... OptM3 with GC (2021)
Angular Grid (max. ang.)         AngularGrid ... 1 (Lebedev-50)
Angular grid pruning method      GridPruning ... 4 (adaptive)
Weight generation scheme         WeightScheme... Becke
Basis function cutoff            BFCut       ... 1.0000e-11
Integration weight cutoff        WCut        ... 1.0000e-14
Angular grids for H and He will be reduced by one unit
Partially contracted basis set               ... on
Rotationally invariant grid construction     ... off

Total number of grid points                  ...     5609
Total number of batches                      ...       97
Average number of points per batch           ...       57
Average number of grid points per atom       ...      330


TRAH GRID
---------

General Integration Accuracy     IntAcc      ... 3.467
Radial Grid Type                 RadialGrid  ... OptM3 with GC (2021)
Angular Grid (max. ang.)         AngularGrid ... 1 (Lebedev-50)
Angular grid pruning method      GridPruning ... 4 (adaptive)
Weight generation scheme         WeightScheme... Becke
Basis function cutoff            BFCut       ... 1.0000e-11
Integration weight cutoff        WCut        ... 1.0000e-14
Angular grids for H and He will be reduced by one unit
Partially contracted basis set               ... off
Rotationally invariant grid construction     ... off

Total number of grid points                  ...    12322
Total number of batches                      ...      201
Average number of points per batch           ...       61
Average number of grid points per atom       ...      725

 --------------------------------------------------------------------------------------------
   Iter.        energy            ||Error||_2        Shift      TRadius  Mac/Mic        Rej.
 --------------------------------------------------------------------------------------------
WARNING: 622 diagonal Hessian elements are negative!
    0       -487.569735769358     4.689130e+00                     0.400 (TRAH MAcro)   No
WARNING : negative HOMO - LUMO gap : -2.438067
    0     dE    -1.056682e+00     1.724857e+00    -5.8744e+00      0.322 (TRAH MIcro)
    0     dE    -9.469668e-01     2.834218e-01    -1.0344e+01      0.261 (TRAH MIcro)
    0     dE    -9.435267e-01     2.204157e-01    -1.0349e+01      0.260 (TRAH MIcro)
    0     dE    -9.363272e-01     5.591654e-02    -1.0358e+01      0.257 (TRAH MIcro)
    0     dE    -9.357867e-01     4.730553e-02    -1.0359e+01      0.257 (TRAH MIcro)
    0     dE    -9.354264e-01     3.127093e-02    -1.0360e+01      0.256 (TRAH MIcro)
    0     dE    -9.353711e-01     1.348329e-02    -1.0360e+01      0.256 (TRAH MIcro)
    0     dE    -9.353922e-01     8.950633e-03    -1.0360e+01      0.256 (TRAH MIcro)
WARNING: 540 diagonal Hessian elements are negative!
    1       -488.495153922784     2.545522e+00                     0.480 (TRAH MAcro)   No
WARNING : negative HOMO - LUMO gap : -2.065400
    1     dE    -3.407797e-01     7.490939e-01    -4.3854e+00      0.201 (TRAH MIcro)
    1     dE    -2.988832e-01     1.879899e-01    -9.0343e+00      0.157 (TRAH MIcro)
    1     dE    -2.940912e-01     1.284103e-01    -9.0551e+00      0.153 (TRAH MIcro)
    1     dE    -2.914333e-01     1.931472e-02    -9.0754e+00      0.150 (TRAH MIcro)
    1     dE    -2.914110e-01     1.079396e-02    -9.0759e+00      0.150 (TRAH MIcro)
    1     dE    -2.914036e-01     6.986491e-03    -9.0760e+00      0.150 (TRAH MIcro)
WARNING: 493 diagonal Hessian elements are negative!
    2       -488.785606450282     1.346725e+00                     0.576 (TRAH MAcro)   No
WARNING : negative HOMO - LUMO gap : -1.875544
    2     dE    -1.549309e-01     2.035303e+00    -3.9354e+00      0.193 (TRAH MIcro)
    2     dE    -9.740135e-02     1.902373e-01    -8.7333e+00      0.097 (TRAH MIcro)
    2     dE    -9.684941e-02     8.310737e-02    -8.8148e+00      0.095 (TRAH MIcro)
    2     dE    -9.606266e-02     2.219367e-02    -8.8413e+00      0.094 (TRAH MIcro)
    2     dE    -9.599715e-02     1.521676e-02    -8.8426e+00      0.094 (TRAH MIcro)
    2     dE    -9.598585e-02     7.785677e-03    -8.8432e+00      0.094 (TRAH MIcro)
WARNING: 466 diagonal Hessian elements are negative!
    3       -488.881226442543     8.185810e-01                     0.691 (TRAH MAcro)   No
WARNING : negative HOMO - LUMO gap : -1.772250
    3     dE    -1.076171e+00     8.196915e+00    -3.9165e+00      0.682 (TRAH MIcro)
    3     dE    -1.947528e+00     1.508302e-01    -7.5869e+00      0.691 (TRAH MIcro)
    3     dE    -1.948998e+00     5.995953e-02    -7.5926e+00      0.691 (TRAH MIcro)
    3     dE    -1.949236e+00     3.700716e-02    -7.5928e+00      0.691 (TRAH MIcro)
    3     dE    -1.949353e+00     1.747182e-02    -7.5926e+00      0.691 (TRAH MIcro)
    3     dE    -1.949398e+00     1.038074e-02    -7.5924e+00      0.691 (TRAH MIcro)
    3     dE    -1.949409e+00     7.297772e-03    -7.5924e+00      0.691 (TRAH MIcro)
WARNING: 233 diagonal Hessian elements are negative!
    4       -490.226647244246     2.460770e+00                     0.691 (TRAH MAcro)   No
WARNING : negative HOMO - LUMO gap : -1.007406
    4     dE    -1.341403e+00     1.458484e+00    -2.0571e+00      0.691 (TRAH MIcro)
    4     dE    -1.423239e+00     6.171075e-01    -2.6086e+00      0.691 (TRAH MIcro)
    4     dE    -9.993272e-01     2.694624e-01    -4.2627e+00      0.461 (TRAH MIcro)
    4     dE    -9.971606e-01     1.166075e-01    -4.2683e+00      0.459 (TRAH MIcro)
    4     dE    -9.967362e-01     2.728197e-02    -4.2696e+00      0.459 (TRAH MIcro)
    4     dE    -9.957129e-01     1.456256e-02    -4.2697e+00      0.458 (TRAH MIcro)
    4     dE    -9.951579e-01     1.408459e-02    -4.2698e+00      0.458 (TRAH MIcro)
    4     dE    -9.947883e-01     9.000488e-03    -4.2699e+00      0.458 (TRAH MIcro)
WARNING: 75 diagonal Hessian elements are negative!
    5       -491.112920851501     1.336536e+00                     0.829 (TRAH MAcro)   No
WARNING : negative HOMO - LUMO gap : -0.627129
    5     dE    -3.104094e-01     1.758460e+00    -5.2859e-01      0.418 (TRAH MIcro)
    5     dE    -3.673297e-01     1.790838e-01    -2.9750e+00      0.363 (TRAH MIcro)
    5     dE    -3.936044e-01     7.233256e-02    -2.9975e+00      0.384 (TRAH MIcro)
    5     dE    -3.958863e-01     3.081374e-02    -3.0012e+00      0.386 (TRAH MIcro)
    5     dE    -3.951196e-01     1.620411e-02    -3.0019e+00      0.385 (TRAH MIcro)
    5     dE    -3.938779e-01     5.867067e-03    -3.0020e+00      0.384 (TRAH MIcro)
WARNING: 18 diagonal Hessian elements are negative!
    6       -491.461442912390     8.441354e-01                     0.995 (TRAH MAcro)   No
WARNING : negative HOMO - LUMO gap : -0.306774
    6     dE    -1.825250e-01     1.418984e+00    -3.1775e-01      0.386 (TRAH MIcro)
    6     dE    -4.725586e-01     1.612781e+00    -5.5991e-01      0.829 (TRAH MIcro)
    6     dE    -7.648440e-01     8.326071e-01    -1.0248e+00      0.995 (TRAH MIcro)
    6     dE    -8.278898e-01     6.176602e-01    -1.2336e+00      0.995 (TRAH MIcro)
    6     dE    -5.864723e-01     8.580732e-02    -1.3812e+00      0.770 (TRAH MIcro)
    6     dE    -5.913292e-01     2.916176e-02    -1.3818e+00      0.774 (TRAH MIcro)
    6     dE    -5.911785e-01     5.376387e-03    -1.3819e+00      0.774 (TRAH MIcro)
WARNING: 6 diagonal Hessian elements are negative!
    7       -491.617494933940     1.080152e+00                     0.995 (TRAH MAcro)   No
WARNING : negative HOMO - LUMO gap : -0.130777
    7     dE    -6.143133e-02     7.501907e-01    -1.2112e-01      0.120 (TRAH MIcro)
    7     dE    -1.287408e-01     6.428701e-01    -2.0641e-01      0.497 (TRAH MIcro)
    7     dE    -1.803578e-01     3.909335e-01    -2.4123e-01      0.704 (TRAH MIcro)
    7     dE    -2.485785e-01     2.979705e-01    -2.6500e-01      0.936 (TRAH MIcro)
    7     dE    -2.770395e-01     2.719014e-01    -2.9104e-01      0.995 (TRAH MIcro)
    7     dE    -3.035457e-01     3.979297e-01    -3.5407e-01      0.995 (TRAH MIcro)
    7     dE    -2.538055e-01     2.295189e-01    -4.6807e-01      0.795 (TRAH MIcro)
    7     dE    -3.516118e-01     2.163702e-01    -4.9759e-01      0.995 (TRAH MIcro)
    7     dE    -3.326752e-01     1.466591e-01    -5.2036e-01      0.945 (TRAH MIcro)
    7     dE    -1.238078e-01     2.092993e-01    -6.4770e-01      0.355 (TRAH MIcro)
    7     dE    -1.185762e-01     4.495107e-02    -6.5944e-01      0.322 (TRAH MIcro)
    7     dE    -1.184445e-01     1.239766e-02    -6.6000e-01      0.320 (TRAH MIcro)
    7     dE    -1.183882e-01     2.802625e-03    -6.6009e-01      0.320 (TRAH MIcro)
    8       -491.700685543218     1.934601e-01                     0.995 (TRAH MAcro)   No
WARNING : small    HOMO - LUMO gap : 0.011664
    8     dE    -3.078409e-03     1.823358e-01    -6.1502e-03      0.033 (TRAH MIcro)
    8     dE    -4.195083e-03     1.267047e-01    -8.3634e-03      0.057 (TRAH MIcro)
    8     dE    -5.749082e-03     1.554048e-01    -1.1392e-02      0.096 (TRAH MIcro)
    8     dE    -7.878739e-03     5.716393e-02    -1.5385e-02      0.156 (TRAH MIcro)
    8     dE    -8.284312e-03     3.079041e-02    -1.6057e-02      0.179 (TRAH MIcro)
    8     dE    -8.450289e-03     1.762935e-02    -1.6295e-02      0.193 (TRAH MIcro)
    8     dE    -8.488286e-03     6.719403e-03    -1.6343e-02      0.197 (TRAH MIcro)
    9       -491.707096422676     7.572337e-02                     1.194 (TRAH MAcro)   No
WARNING : small    HOMO - LUMO gap : 0.006212
    9     dE    -3.135719e-04     6.755939e-02    -6.2709e-04      0.009 (TRAH MIcro)
    9     dE    -3.922344e-04     4.549276e-02    -7.8432e-04      0.014 (TRAH MIcro)
    9     dE    -6.837001e-04     4.398123e-02    -1.3661e-03      0.030 (TRAH MIcro)
    9     dE    -8.491741e-04     2.817432e-02    -1.6950e-03      0.045 (TRAH MIcro)
    9     dE    -9.048769e-04     7.843572e-03    -1.8046e-03      0.054 (TRAH MIcro)
    9     dE    -9.099283e-04     3.570426e-03    -1.8143e-03      0.055 (TRAH MIcro)
   10       -491.708048308435     6.879267e-03                     1.433 (TRAH MAcro)   No
WARNING : small    HOMO - LUMO gap : 0.009900
   10     dE    -2.844414e-06     6.345103e-03    -5.6888e-06      0.001 (TRAH MIcro)
   10     dE    -3.804364e-06     5.873440e-03    -7.6087e-06      0.001 (TRAH MIcro)
   10     dE    -9.259592e-06     6.321992e-03    -1.8519e-05      0.005 (TRAH MIcro)
   10     dE    -1.224026e-05     3.352247e-03    -2.4479e-05      0.007 (TRAH MIcro)
   10     dE    -1.300725e-05     1.232133e-03    -2.6013e-05      0.008 (TRAH MIcro)
   10     dE    -1.314814e-05     5.743155e-04    -2.6295e-05      0.008 (TRAH MIcro)
   11       -491.708061538722     6.066407e-04                           (NR   MAcro)
WARNING : small    HOMO - LUMO gap : 0.010082
   11     dE    -4.660868e-09     5.591502e-04                           (NR   MIcro)
   11     dE    -2.181006e-08     3.526922e-04                           (NR   MIcro)
   11     dE    -3.093093e-08     2.142556e-04                           (NR   MIcro)
   11     dE    -3.490845e-08     7.582164e-05                           (NR   MIcro)
   11     dE    -3.553134e-08     3.900775e-05                           (NR   MIcro)
   11     dE    -3.567251e-08     1.960164e-05                           (NR   MIcro)
   11     dE    -3.569945e-08     6.636444e-06                           (NR   MIcro)
   11     dE    -3.570277e-08     2.448374e-06                           (NR   MIcro)
   12       -491.708061574582     2.453507e-06                           (NR   MAcro)
WARNING : small    HOMO - LUMO gap : 0.010085
   12     dE    -3.307843e-13     1.215552e-06                           (NR   MIcro)
   12     dE    -3.592250e-13     1.112932e-06                           (NR   MIcro)
   12     dE    -4.584854e-13     5.219965e-07                           (NR   MIcro)
   13       -491.708061574591     5.221059e-07                           (NR   MAcro)
WARNING : small    HOMO - LUMO gap : 0.010085

               *****************************************************
               *                     SUCCESS                       *
               *           SCF CONVERGED AFTER 125 CYCLES          *
               *****************************************************

Old exchange energy                            =    -12.498295321 Eh
New exchange energy                            =    -12.498289025 Eh
Exchange energy change after final integration =      0.000006296 Eh
Total energy after final integration           =   -491.708055279 Eh
Final COS-X integration done in                =    37.454 sec

----------------
TOTAL SCF ENERGY
----------------

Total Energy       :         -491.70805528 Eh          -13380.05641 eV

Components:
Nuclear Repulsion  :          396.23756188 Eh           10782.17221 eV
Electronic Energy  :         -887.94561715 Eh          -24162.22863 eV
One Electron Energy:        -1440.64522583 Eh          -39201.94958 eV
Two Electron Energy:          552.69960868 Eh           15039.72096 eV
Max COSX asymmetry :            0.00000268 Eh               0.00007 eV

Virial components:
Potential Energy   :         -979.50990054 Eh          -26653.81945 eV
Kinetic Energy     :          487.80184526 Eh           13273.76303 eV
Virial Ratio       :            2.00800778


DFT components:
N(Alpha)           :       36.000014490595 electrons
N(Beta)            :       36.000014490595 electrons
N(Total)           :       72.000028981189 electrons
E(X)               :      -49.925765462962 Eh       
E(C)               :       -2.908999030556 Eh       
E(XC)              :      -52.834764493518 Eh       
DFET-embed. en.    :        0.000000000000 Eh       

---------------
SCF CONVERGENCE
---------------

  Last Energy change         ...   -9.0381e-12  Tolerance :   1.0000e-08
  Last Orbital Gradient      ...    5.2211e-07  Tolerance :   1.0000e-05
  Last Orbital Rotation      ...    9.2774e-07

             **** THE GBW FILE WAS UPDATED (a_o.gbw) ****
             **** DENSITY a_o.scfp WAS UPDATED ****
             **** ENERGY FILE WAS UPDATED (a_o.en.tmp) ****
             **** THE GBW FILE WAS UPDATED (a_o.gbw) ****
             **** DENSITY a_o.scfp WAS UPDATED ****
----------------
ORBITAL ENERGIES
----------------

  NO   OCC          E(Eh)            E(eV) 
   0   2.0000     -19.347839      -526.4815 
   1   2.0000     -19.347727      -526.4784 
   2   2.0000     -14.680049      -399.4645 
   3   2.0000     -14.550667      -395.9438 
   4   2.0000     -10.421620      -283.5867 
   5   2.0000     -10.365137      -282.0497 
   6   2.0000     -10.363590      -282.0076 
   7   2.0000     -10.362993      -281.9914 
   8   2.0000     -10.356924      -281.8262 
   9   2.0000     -10.356553      -281.8161 
  10   2.0000      -1.385924       -37.7129 
  11   2.0000      -1.194916       -32.5153 
  12   2.0000      -1.113299       -30.2944 
  13   2.0000      -1.011147       -27.5147 
  14   2.0000      -0.911849       -24.8127 
  15   2.0000      -0.901025       -24.5181 
  16   2.0000      -0.790196       -21.5023 
  17   2.0000      -0.774592       -21.0777 
  18   2.0000      -0.759735       -20.6734 
  19   2.0000      -0.705794       -19.2056 
  20   2.0000      -0.701908       -19.0999 
  21   2.0000      -0.669926       -18.2296 
  22   2.0000      -0.662479       -18.0270 
  23   2.0000      -0.657140       -17.8817 
  24   2.0000      -0.651125       -17.7180 
  25   2.0000      -0.614178       -16.7126 
  26   2.0000      -0.601936       -16.3795 
  27   2.0000      -0.587758       -15.9937 
  28   2.0000      -0.573704       -15.6113 
  29   2.0000      -0.527958       -14.3665 
  30   2.0000      -0.515554       -14.0289 
  31   2.0000      -0.492293       -13.3960 
  32   2.0000      -0.471501       -12.8302 
  33   2.0000      -0.443725       -12.0744 
  34   2.0000      -0.423909       -11.5352 
  35   2.0000      -0.372454       -10.1350 
  36   0.0000      -0.362369        -9.8606 
  37   0.0000      -0.200829        -5.4648 
  38   0.0000      -0.173845        -4.7306 
  39   0.0000      -0.158902        -4.3240 
  40   0.0000      -0.098878        -2.6906 
  41   0.0000      -0.068617        -1.8672 
  42   0.0000      -0.063381        -1.7247 
  43   0.0000      -0.019147        -0.5210 
  44   0.0000      -0.013810        -0.3758 
  45   0.0000      -0.008926        -0.2429 
  46   0.0000       0.017623         0.4796 
  47   0.0000       0.028857         0.7852 
  48   0.0000       0.093771         2.5517 
  49   0.0000       0.123166         3.3515 
  50   0.0000       0.131465         3.5773 
  51   0.0000       0.134135         3.6500 
  52   0.0000       0.160182         4.3588 
  53   0.0000       0.189926         5.1682 
  54   0.0000       0.202882         5.5207 
  55   0.0000       0.203903         5.5485 
  56   0.0000       0.245842         6.6897 
  57   0.0000       0.254972         6.9381 
  58   0.0000       0.264520         7.1979 
  59   0.0000       0.279461         7.6045 
  60   0.0000       0.305891         8.3237 
  61   0.0000       0.336213         9.1488 
  62   0.0000       0.343313         9.3420 
  63   0.0000       0.349262         9.5039 
  64   0.0000       0.372064        10.1244 
  65   0.0000       0.378254        10.2928 
  66   0.0000       0.381017        10.3680 
  67   0.0000       0.384206        10.4548 
  68   0.0000       0.385488        10.4897 
  69   0.0000       0.442497        12.0409 
  70   0.0000       0.451581        12.2881 
  71   0.0000       0.486666        13.2429 
  72   0.0000       0.502365        13.6700 
  73   0.0000       0.522767        14.2252 
  74   0.0000       0.530102        14.4248 
  75   0.0000       0.534440        14.5428 
  76   0.0000       0.551259        15.0005 
  77   0.0000       0.551776        15.0146 
  78   0.0000       0.554344        15.0845 
  79   0.0000       0.560462        15.2510 
  80   0.0000       0.565218        15.3804 
  81   0.0000       0.577296        15.7090 
  82   0.0000       0.590875        16.0785 
  83   0.0000       0.595712        16.2101 
  84   0.0000       0.613415        16.6919 
  85   0.0000       0.647632        17.6230 
  86   0.0000       0.665474        18.1085 
  87   0.0000       0.716043        19.4845 
  88   0.0000       0.757667        20.6172 
  89   0.0000       0.759094        20.6560 
  90   0.0000       0.761282        20.7155 
  91   0.0000       0.776042        21.1172 
  92   0.0000       0.807384        21.9700 
  93   0.0000       0.828820        22.5533 
  94   0.0000       0.836650        22.7664 
  95   0.0000       0.899930        24.4883 
  96   0.0000       0.932203        25.3665 
  97   0.0000       0.954264        25.9668 
  98   0.0000       0.976809        26.5803 
  99   0.0000       1.011584        27.5266 
 100   0.0000       1.041547        28.3419 
 101   0.0000       1.071193        29.1486 
 102   0.0000       1.083802        29.4918 
 103   0.0000       1.092682        29.7334 
 104   0.0000       1.103921        30.0392 
 105   0.0000       1.115615        30.3574 
 106   0.0000       1.139833        31.0164 
 107   0.0000       1.169551        31.8251 
 108   0.0000       1.191918        32.4337 
 109   0.0000       1.304517        35.4977 
 110   0.0000       1.344940        36.5977 
 111   0.0000       1.459220        39.7074 
 112   0.0000       1.503767        40.9196 
 113   0.0000       1.516276        41.2600 
 114   0.0000       1.553154        42.2635 
 115   0.0000       1.558851        42.4185 
 116   0.0000       1.569223        42.7007 
 117   0.0000       1.583906        43.1003 
 118   0.0000       1.597142        43.4604 
 119   0.0000       1.597493        43.4700 
 120   0.0000       1.630510        44.3684 
 121   0.0000       1.631571        44.3973 
 122   0.0000       1.645639        44.7801 
 123   0.0000       1.652650        44.9709 
 124   0.0000       1.685501        45.8648 
 125   0.0000       1.704592        46.3843 
 126   0.0000       1.714464        46.6529 
 127   0.0000       1.751146        47.6511 
 128   0.0000       1.760138        47.8958 
 129   0.0000       1.793724        48.8097 
 130   0.0000       1.821375        49.5621 
 131   0.0000       1.833224        49.8845 
 132   0.0000       1.880884        51.1814 
 133   0.0000       1.938352        52.7452 
 134   0.0000       1.964981        53.4699 
 135   0.0000       1.967821        53.5471 
 136   0.0000       1.979099        53.8540 
 137   0.0000       1.984736        54.0074 
 138   0.0000       2.031416        55.2776 
 139   0.0000       2.089889        56.8688 
 140   0.0000       2.101891        57.1954 
 141   0.0000       2.134797        58.0908 
 142   0.0000       2.178011        59.2667 
 143   0.0000       2.181640        59.3654 
 144   0.0000       2.188174        59.5433 
 145   0.0000       2.247367        61.1540 
 146   0.0000       2.280012        62.0423 
 147   0.0000       2.334528        63.5257 
 148   0.0000       2.375600        64.6434 
 149   0.0000       2.430403        66.1346 
 150   0.0000       2.441379        66.4333 
 151   0.0000       2.442223        66.4563 
 152   0.0000       2.453069        66.7514 
 153   0.0000       2.501949        68.0815 
 154   0.0000       2.512638        68.3724 
 155   0.0000       2.548203        69.3401 
 156   0.0000       2.560775        69.6822 
 157   0.0000       2.572564        70.0030 
 158   0.0000       2.578887        70.1751 
 159   0.0000       2.681092        72.9562 
 160   0.0000       2.681704        72.9729 
 161   0.0000       2.704777        73.6007 
 162   0.0000       2.759017        75.0767 
 163   0.0000       2.762725        75.1776 
 164   0.0000       2.904867        79.0454 
 165   0.0000       2.942245        80.0626 
 166   0.0000       2.946678        80.1832 
 167   0.0000       3.011356        81.9432 
 168   0.0000       3.056631        83.1752 
 169   0.0000       3.107895        84.5701 
 170   0.0000       3.219450        87.6057 
 171   0.0000       3.333538        90.7102 
 172   0.0000       3.499743        95.2328 
 173   0.0000       3.508570        95.4731 
 174   0.0000       3.515825        95.6705 

                    ********************************
                    * MULLIKEN POPULATION ANALYSIS *
                    ********************************

-----------------------
MULLIKEN ATOMIC CHARGES
-----------------------
   0 C :    0.079869
   1 C :    0.026198
   2 C :    0.032442
   3 C :    0.083917
   4 C :    0.032048
   5 C :    0.025247
   6 H :    0.020955
   7 H :    0.045260
   8 H :    0.051473
   9 H :    0.042804
  10 H :    0.017015
  11 N :    0.034243
  12 H :    0.166771
  13 H :    0.165034
  14 N :    0.343042
  15 O :   -0.081789
  16 O :   -0.084527
Sum of atomic charges:    1.0000000

--------------------------------
MULLIKEN REDUCED ORBITAL CHARGES
--------------------------------
  0 C s       :     2.982997  s :     2.982997
      pz      :     0.893186  p :     2.873507
      px      :     1.056565
      py      :     0.923756
      dz2     :     0.004434  d :     0.063628
      dxz     :     0.007943
      dyz     :     0.013595
      dx2y2   :     0.021029
      dxy     :     0.016627
  1 C s       :     3.227959  s :     3.227959
      pz      :     0.966617  p :     2.712930
      px      :     0.835619
      py      :     0.910694
      dz2     :     0.002655  d :     0.032913
      dxz     :     0.002916
      dyz     :     0.004919
      dx2y2   :     0.009306
      dxy     :     0.013118
  2 C s       :     3.176919  s :     3.176919
      pz      :     0.921104  p :     2.755688
      px      :     0.899438
      py      :     0.935146
      dz2     :     0.002542  d :     0.034951
      dxz     :     0.003386
      dyz     :     0.005039
      dx2y2   :     0.011650
      dxy     :     0.012333
  3 C s       :     3.180612  s :     3.180612
      pz      :     0.853936  p :     2.699437
      px      :     0.966034
      py      :     0.879467
      dz2     :     0.002488  d :     0.036034
      dxz     :     0.006196
      dyz     :     0.002663
      dx2y2   :     0.013158
      dxy     :     0.011529
  4 C s       :     3.175912  s :     3.175912
      pz      :     0.923518  p :     2.757077
      px      :     0.896450
      py      :     0.937109
      dz2     :     0.002543  d :     0.034963
      dxz     :     0.003258
      dyz     :     0.005182
      dx2y2   :     0.011786
      dxy     :     0.012194
  5 C s       :     3.226794  s :     3.226794
      pz      :     0.969457  p :     2.715020
      px      :     0.840600
      py      :     0.904963
      dz2     :     0.002656  d :     0.032939
      dxz     :     0.003025
      dyz     :     0.004827
      dx2y2   :     0.009455
      dxy     :     0.012977
  6 H s       :     0.955549  s :     0.955549
      pz      :     0.004546  p :     0.023496
      px      :     0.013396
      py      :     0.005554
  7 H s       :     0.931440  s :     0.931440
      pz      :     0.004011  p :     0.023301
      px      :     0.012550
      py      :     0.006740
  8 H s       :     0.925377  s :     0.925377
      pz      :     0.003750  p :     0.023149
      px      :     0.003149
      py      :     0.016250
  9 H s       :     0.933907  s :     0.933907
      pz      :     0.004041  p :     0.023289
      px      :     0.013134
      py      :     0.006115
 10 H s       :     0.959514  s :     0.959514
      pz      :     0.004589  p :     0.023471
      px      :     0.012746
      py      :     0.006135
 11 N s       :     3.311269  s :     3.311269
      pz      :     1.518110  p :     3.638479
      px      :     1.042786
      py      :     1.077583
      dz2     :     0.001418  d :     0.016009
      dxz     :     0.000816
      dyz     :     0.003075
      dx2y2   :     0.004811
      dxy     :     0.005888
 12 H s       :     0.788696  s :     0.788696
      pz      :     0.011084  p :     0.044533
      px      :     0.021902
      py      :     0.011546
 13 H s       :     0.790423  s :     0.790423
      pz      :     0.011140  p :     0.044543
      px      :     0.020919
      py      :     0.012483
 14 N s       :     3.498378  s :     3.498378
      pz      :     1.031312  p :     3.065882
      px      :     1.114769
      py      :     0.919800
      dz2     :     0.012167  d :     0.092698
      dxz     :     0.010401
      dyz     :     0.021850
      dx2y2   :     0.020963
      dxy     :     0.027318
 15 O s       :     3.876830  s :     3.876830
      pz      :     1.504859  p :     4.181040
      px      :     1.243838
      py      :     1.432343
      dz2     :     0.002771  d :     0.023919
      dxz     :     0.002928
      dyz     :     0.003781
      dx2y2   :     0.006079
      dxy     :     0.008360
 16 O s       :     3.876314  s :     3.876314
      pz      :     1.360453  p :     4.184328
      px      :     1.461424
      py      :     1.362451
      dz2     :     0.004052  d :     0.023885
      dxz     :     0.001999
      dyz     :     0.007384
      dx2y2   :     0.005298
      dxy     :     0.005152


                     *******************************
                     * LOEWDIN POPULATION ANALYSIS *
                     *******************************

----------------------
LOEWDIN ATOMIC CHARGES
----------------------
   0 C :    0.067660
   1 C :    0.006946
   2 C :    0.026652
   3 C :    0.072492
   4 C :    0.024947
   5 C :    0.005222
   6 H :    0.049573
   7 H :    0.055712
   8 H :    0.056799
   9 H :    0.054640
  10 H :    0.047884
  11 N :    0.135875
  12 H :    0.109906
  13 H :    0.108967
  14 N :    0.240855
  15 O :   -0.030775
  16 O :   -0.033355

-------------------------------
LOEWDIN REDUCED ORBITAL CHARGES
-------------------------------
  0 C s       :     2.832861  s :     2.832861
      pz      :     0.875409  p :     2.947957
      px      :     1.109700
      py      :     0.962848
      dz2     :     0.009984  d :     0.151522
      dxz     :     0.016026
      dyz     :     0.027285
      dx2y2   :     0.055572
      dxy     :     0.042655
  1 C s       :     2.861115  s :     2.861115
      pz      :     0.950039  p :     3.044620
      px      :     1.031464
      py      :     1.063116
      dz2     :     0.006471  d :     0.087320
      dxz     :     0.005360
      dyz     :     0.009933
      dx2y2   :     0.028820
      dxy     :     0.036736
  2 C s       :     2.861480  s :     2.861480
      pz      :     0.909883  p :     3.021811
      px      :     1.056733
      py      :     1.055195
      dz2     :     0.006265  d :     0.090057
      dxz     :     0.006146
      dyz     :     0.010422
      dx2y2   :     0.033134
      dxy     :     0.034090
  3 C s       :     2.868830  s :     2.868830
      pz      :     0.837310  p :     2.967420
      px      :     1.070648
      py      :     1.059462
      dz2     :     0.006155  d :     0.091259
      dxz     :     0.012872
      dyz     :     0.004189
      dx2y2   :     0.035880
      dxy     :     0.032163
  4 C s       :     2.861323  s :     2.861323
      pz      :     0.912070  p :     3.023608
      px      :     1.056253
      py      :     1.055284
      dz2     :     0.006268  d :     0.090123
      dxz     :     0.005798
      dyz     :     0.010824
      dx2y2   :     0.033477
      dxy     :     0.033756
  5 C s       :     2.860980  s :     2.860980
      pz      :     0.952199  p :     3.046384
      px      :     1.030125
      py      :     1.064059
      dz2     :     0.006473  d :     0.087415
      dxz     :     0.005681
      dyz     :     0.009669
      dx2y2   :     0.029048
      dxy     :     0.036544
  6 H s       :     0.880143  s :     0.880143
      pz      :     0.014261  p :     0.070284
      px      :     0.038843
      py      :     0.017180
  7 H s       :     0.875524  s :     0.875524
      pz      :     0.012461  p :     0.068764
      px      :     0.036377
      py      :     0.019926
  8 H s       :     0.873864  s :     0.873864
      pz      :     0.011851  p :     0.069337
      px      :     0.010747
      py      :     0.046739
  9 H s       :     0.876663  s :     0.876663
      pz      :     0.012532  p :     0.068696
      px      :     0.037966
      py      :     0.018198
 10 H s       :     0.881930  s :     0.881930
      pz      :     0.014364  p :     0.070186
      px      :     0.037053
      py      :     0.018768
 11 N s       :     3.039942  s :     3.039942
      pz      :     1.459753  p :     3.782414
      px      :     1.165278
      py      :     1.157384
      dz2     :     0.002539  d :     0.041768
      dxz     :     0.001757
      dyz     :     0.005441
      dx2y2   :     0.014393
      dxy     :     0.017638
 12 H s       :     0.769553  s :     0.769553
      pz      :     0.035088  p :     0.120540
      px      :     0.057812
      py      :     0.027640
 13 H s       :     0.770559  s :     0.770559
      pz      :     0.035145  p :     0.120474
      px      :     0.055047
      py      :     0.030282
 14 N s       :     3.254420  s :     3.254420
      pz      :     1.056136  p :     3.315369
      px      :     1.204467
      py      :     1.054766
      dz2     :     0.023209  d :     0.189355
      dxz     :     0.015881
      dyz     :     0.046540
      dx2y2   :     0.040655
      dxy     :     0.063071
 15 O s       :     3.646522  s :     3.646522
      pz      :     1.499747  p :     4.339983
      px      :     1.337688
      py      :     1.502548
      dz2     :     0.006520  d :     0.044270
      dxz     :     0.003940
      dyz     :     0.005227
      dx2y2   :     0.008963
      dxy     :     0.019621
 16 O s       :     3.646324  s :     3.646324
      pz      :     1.404890  p :     4.342804
      px      :     1.481514
      py      :     1.456400
      dz2     :     0.005431  d :     0.044227
      dxz     :     0.003909
      dyz     :     0.015343
      dx2y2   :     0.009891
      dxy     :     0.009653


                      *****************************
                      * MAYER POPULATION ANALYSIS *
                      *****************************

  NA   - Mulliken gross atomic population
  ZA   - Total nuclear charge
  QA   - Mulliken gross atomic charge
  VA   - Mayer's total valence
  BVA  - Mayer's bonded valence
  FA   - Mayer's free valence

  ATOM       NA         ZA         QA         VA         BVA        FA
  0 C      5.9201     6.0000     0.0799     4.0172     4.0172     0.0000
  1 C      5.9738     6.0000     0.0262     3.8015     3.8015     0.0000
  2 C      5.9676     6.0000     0.0324     3.8783     3.8783     0.0000
  3 C      5.9161     6.0000     0.0839     3.8009     3.8009     0.0000
  4 C      5.9680     6.0000     0.0320     3.8780     3.8780    -0.0000
  5 C      5.9748     6.0000     0.0252     3.8005     3.8005     0.0000
  6 H      0.9790     1.0000     0.0210     0.9925     0.9925    -0.0000
  7 H      0.9547     1.0000     0.0453     0.9825     0.9825    -0.0000
  8 H      0.9485     1.0000     0.0515     0.9808     0.9808    -0.0000
  9 H      0.9572     1.0000     0.0428     0.9825     0.9825    -0.0000
 10 H      0.9830     1.0000     0.0170     0.9924     0.9924    -0.0000
 11 N      6.9658     7.0000     0.0342     3.4869     3.4869    -0.0000
 12 H      0.8332     1.0000     0.1668     0.9851     0.9851    -0.0000
 13 H      0.8350     1.0000     0.1650     0.9857     0.9857    -0.0000
 14 N      6.6570     7.0000     0.3430     3.6191     3.6191    -0.0000
 15 O      8.0818     8.0000    -0.0818     2.2458     2.2458    -0.0000
 16 O      8.0845     8.0000    -0.0845     2.2432     2.2432     0.0000

  Mayer bond orders larger than 0.100000
B(  0-C ,  1-C ) :   1.1937 B(  0-C ,  5-C ) :   1.1934 B(  0-C , 11-N ) :   1.3751 
B(  1-C ,  2-C ) :   1.4700 B(  1-C ,  6-H ) :   0.9957 B(  2-C ,  3-C ) :   1.2903 
B(  2-C ,  7-H ) :   0.9846 B(  3-C ,  4-C ) :   1.2924 B(  3-C ,  8-H ) :   0.9899 
B(  4-C ,  5-C ) :   1.4681 B(  4-C ,  9-H ) :   0.9846 B(  5-C , 10-H ) :   0.9955 
B( 11-N , 12-H ) :   0.9287 B( 11-N , 13-H ) :   0.9293 B( 11-N , 14-N ) :   0.1063 
B( 14-N , 15-O ) :   1.6317 B( 14-N , 16-O ) :   1.6299 B( 15-O , 16-O ) :   0.3081 


-------
TIMINGS
-------

Total SCF time: 0 days 0 hours 18 min 40 sec 

Total time                  ....    1120.833 sec
Sum of individual times     ....    1077.908 sec  ( 96.2%)

Fock matrix formation       ....    1064.961 sec  ( 95.0%)
  Split-RI-J                ....     133.840 sec  ( 12.6% of F)
  Chain of spheres X        ....     743.964 sec  ( 69.9% of F)
  XC integration            ....     144.572 sec  ( 13.6% of F)
    Basis function eval.    ....      44.119 sec  ( 30.5% of XC)
    Density eval.           ....      33.606 sec  ( 23.2% of XC)
    XC-Functional eval.     ....       9.213 sec  (  6.4% of XC)
    XC-Potential eval.      ....      33.155 sec  ( 22.9% of XC)
Diagonalization             ....       0.431 sec  (  0.0%)
Density matrix formation    ....       0.082 sec  (  0.0%)
Population analysis         ....       0.249 sec  (  0.0%)
Initial guess               ....       2.011 sec  (  0.2%)
Orbital Transformation      ....       0.479 sec  (  0.0%)
Orbital Orthonormalization  ....       0.000 sec  (  0.0%)
DIIS solution               ....       0.720 sec  (  0.1%)
SOSCF solution              ....       0.000 sec  (  0.0%)
Grid generation             ....       8.972 sec  (  0.8%)

Maximum memory used throughout the entire SCF-calculation: 68.7 MB


-------------------------------------------------------------------------------
                          DFT DISPERSION CORRECTION                            
                                                                               
                                 DFTD4 V2.5                                    
-------------------------------------------------------------------------------
The B3LYP functional is recognized
Active option DFTDOPT                   ...         5   

Starting D4
-------------------------   ----------------
Dispersion correction           -0.020493001
-------------------------   ----------------


-------------------------   --------------------
FINAL SINGLE POINT ENERGY      -491.728548279879
-------------------------   --------------------

------------------------------------------------------------------------------
                         ORCA SCF GRADIENT CALCULATION
------------------------------------------------------------------------------

 ... reading COSX grid (gridx3)
Gradient of the Kohn-Sham DFT energy:
Kohn-Sham wavefunction type      ... RKS
Hartree-Fock exchange scaling    ...    0.200
Number of operators              ...    1
Number of atoms                  ...   17
Basis set dimensions             ...  175
Integral neglect threshold       ... 2.5e-11
Integral primitive cutoff        ... 2.5e-12
[...]
 C      3   2   1     2.663649269380   120.58453857   359.92097771
 C      4   3   2     2.662899790082   120.05812546     0.00000000
 C      5   4   3     2.611727652944   120.37121866     0.00000000
 H      2   1   3     2.064669365379   119.47913207   179.96901267
 H      3   2   1     2.063636167373   119.71864767   179.89002871
 H      4   3   2     2.063343660209   119.91681112   179.98659627
 H      5   4   3     2.063485268846   119.95284785   179.97537953
 H      6   5   4     2.065641369499   120.79870646   180.07043438
 N      1   2   3     2.546472310630   120.52414267   179.44498552
 H     12   1   2     1.917273513624   121.16044111     4.57595757
 H     12   1   2     1.916461717552   121.04404442   176.09983870
 N     11   6   5    15.921457000323   167.65319493    50.62551350
 O     15  11   6     2.206816600560    86.52662712   115.40934556
 O     15  11   6     2.207897707065    60.59538532   280.61404330

------------------------------------------------------------------------------
                   ___                                                        
                  /   \      - P O W E R E D   B Y -                         
                 /     \                                                     
                 |  |  |   _    _      __       _____    __    __             
                 |  |  |  | |  | |    /  \     |  _  \  |  |  /  |          
                  \  \/   | |  | |   /    \    | | | |  |  | /  /          
                 / \  \   | |__| |  /  /\  \   | |_| |  |  |/  /          
                |  |  |   |  __  | /  /__\  \  |    /   |      \           
                |  |  |   | |  | | |   __   |  |    \   |  |\   \          
                \     /   | |  | | |  |  |  |  | |\  \  |  | \   \       
                 \___/    |_|  |_| |__|  |__|  |_| \__\ |__|  \__/        
                                                                              
                      - O R C A' S   B I G   F R I E N D -                    
                                      &                                       
                       - I N T E G R A L  F E E D E R -                       
                                                                              
 v1 FN, 2020, v2 2021                                                         
------------------------------------------------------------------------------


Reading SHARK input file a_o.SHARKINP.tmp ... ok
----------------------
SHARK INTEGRAL PACKAGE
----------------------

Number of atoms                             ...     17
Number of basis functions                   ...    175
Number of shells                            ...     81
Maximum angular momentum                    ...      2
Integral batch strategy                     ... SHARK/LIBINT Hybrid
RI-J (if used) integral strategy            ... SPLIT-RIJ (Revised 2003 algorithm where possible)
Printlevel                                  ...      1
Contraction scheme used                     ... SEGMENTED contraction
Coulomb Range Separation                    ... NOT USED
Exchange Range Separation                   ... NOT USED
Finite Nucleus Model                        ... NOT USED
Auxiliary Coulomb fitting basis             ... AVAILABLE
   # of basis functions in Aux-J            ...    567
   # of shells in Aux-J                     ...    185
   Maximum angular momentum in Aux-J        ...      4
Auxiliary J/K fitting basis                 ... NOT available
Auxiliary Correlation fitting basis         ... NOT available
Auxiliary 'external' fitting basis          ... NOT available
Integral threshold                          ...     2.500000e-11
Primitive cut-off                           ...     2.500000e-12
Primitive pair pre-selection threshold      ...     2.500000e-12

Calculating pre-screening integrals         ... done (  0.1 sec) Dimension = 81
Organizing shell pair data                  ... done (  0.1 sec)
Shell pair information
Total number of shell pairs                 ...      3321
Shell pairs after pre-screening             ...      2142
Total number of primitive shell pairs       ...     12241
Primitive shell pairs kept                  ...      5945
          la=0 lb=0:    662 shell pairs
          la=1 lb=0:    775 shell pairs
          la=1 lb=1:    245 shell pairs
          la=2 lb=0:    266 shell pairs
          la=2 lb=1:    160 shell pairs
          la=2 lb=2:     34 shell pairs

Calculating one electron integrals          ... done (  0.1 sec)
Calculating RI/J V-Matrix + Cholesky decomp.... done (  0.0 sec)
Calculating Nuclear repulsion               ... done (  0.0 sec) ENN=    394.631989845636 Eh

SHARK setup successfully completed in   0.6 seconds

Maximum memory used throughout the entire GTOINT-calculation: 18.7 MB

Diagonalization of the overlap matrix:
Smallest eigenvalue                        ... 3.080e-04
Time for diagonalization                   ...    0.014 sec
Threshold for overlap eigenvalues          ... 1.000e-08
Number of eigenvalues below threshold      ... 0
Time for construction of square roots      ...    0.020 sec
Total time needed                          ...    0.034 sec

-------------------
DFT GRID GENERATION
-------------------

General Integration Accuracy     IntAcc      ... 4.388
Radial Grid Type                 RadialGrid  ... OptM3 with GC (2021)
Angular Grid (max. ang.)         AngularGrid ... 4 (Lebedev-302)
Angular grid pruning method      GridPruning ... 4 (adaptive)
Weight generation scheme         WeightScheme... Becke
Basis function cutoff            BFCut       ... 1.0000e-11
Integration weight cutoff        WCut        ... 1.0000e-14
Angular grids for H and He will be reduced by one unit
Partially contracted basis set               ... off
Rotationally invariant grid construction     ... off

Total number of grid points                  ...    83091
Total number of batches                      ...     1307
Average number of points per batch           ...       63
Average number of grid points per atom       ...     4888
Time for grid setup =    3.146 sec

--------------------
COSX GRID GENERATION
--------------------

GRIDX 1
-------
General Integration Accuracy     IntAcc      ... 3.816
Radial Grid Type                 RadialGrid  ... OptM3 with GC (2021)
Angular Grid (max. ang.)         AngularGrid ... 1 (Lebedev-50)
Angular grid pruning method      GridPruning ... 4 (adaptive)
Weight generation scheme         WeightScheme... Becke
Basis function cutoff            BFCut       ... 1.0000e-11
Integration weight cutoff        WCut        ... 1.0000e-14
Angular grids for H and He will be reduced by one unit
Partially contracted basis set               ... on
Rotationally invariant grid construction     ... off

Total number of grid points                  ...    10619
Total number of batches                      ...      172
Average number of points per batch           ...       61
Average number of grid points per atom       ...      625
UseSFitting                                  ... on

GRIDX 2
-------
General Integration Accuracy     IntAcc      ... 4.020
Radial Grid Type                 RadialGrid  ... OptM3 with GC (2021)
Angular Grid (max. ang.)         AngularGrid ... 2 (Lebedev-110)
Angular grid pruning method      GridPruning ... 4 (adaptive)
Weight generation scheme         WeightScheme... Becke
Basis function cutoff            BFCut       ... 1.0000e-11
Integration weight cutoff        WCut        ... 1.0000e-14
Angular grids for H and He will be reduced by one unit
Partially contracted basis set               ... on
Rotationally invariant grid construction     ... off

Total number of grid points                  ...    23623
Total number of batches                      ...      378
Average number of points per batch           ...       62
Average number of grid points per atom       ...     1390
UseSFitting                                  ... on

GRIDX 3
-------
General Integration Accuracy     IntAcc      ... 4.338
Radial Grid Type                 RadialGrid  ... OptM3 with GC (2021)
Angular Grid (max. ang.)         AngularGrid ... 3 (Lebedev-194)
Angular grid pruning method      GridPruning ... 4 (adaptive)
Weight generation scheme         WeightScheme... Becke
Basis function cutoff            BFCut       ... 1.0000e-11
Integration weight cutoff        WCut        ... 1.0000e-14
Angular grids for H and He will be reduced by one unit
Partially contracted basis set               ... on
Rotationally invariant grid construction     ... off

Total number of grid points                  ...    52120
Total number of batches                      ...      823
Average number of points per batch           ...       63
Average number of grid points per atom       ...     3066
UseSFitting                                  ... on

Time for X-Grid setup             =    2.955 sec

--------------
SCF ITERATIONS
--------------
ITER       Energy         Delta-E        Max-DP      RMS-DP      [F,P]     Damp
               ***  Starting incremental Fock matrix formation  ***
  0   -490.5502371366   0.000000000000 0.38038164  0.00663180  0.3556752 0.7000
  1   -490.9894858761  -0.439248739524 0.17832612  0.00414942  0.2067844 0.7000
                               ***Turning on DIIS***
  2   -491.1478079326  -0.158322056471 0.16570191  0.00308270  0.1452359 0.7000
  3   -491.3618352109  -0.214027278394 0.11699992  0.00210415  0.1024340 0.7000
  4   -491.4715552633  -0.109720052353 0.31965746  0.00924534  0.0710001 0.0000
  5   -491.0104343865   0.461120876808 0.02568052  0.00038714  0.2211010 0.7000
  6   -491.0456804449  -0.035246058370 0.02653159  0.00038462  0.2085871 0.7000
  7   -491.0780596035  -0.032379158587 0.02225703  0.00034423  0.1971873 0.7000
  8   -491.1053421798  -0.027282576332 0.06179643  0.00082599  0.1908842 0.7000
  9   -491.1577446485  -0.052402468726 0.21288196  0.00643793  0.1650686 0.7000
 10   -491.1448421385   0.012902510025 0.46198791  0.01527660  0.0920579 0.0000
 11   -483.2791466316   7.865695506859 0.14735285  0.00511310  0.3943672 0.7000
 12   -486.8007017559  -3.521555124227 0.10337907  0.00359434  0.2889646 0.7000
 13   -488.7427321505  -1.942030394665 0.07400476  0.00252852  0.2561670 0.7000
 14   -489.8430672362  -1.100335085709 0.05255783  0.00178151  0.2256751 0.7000
 15   -490.4837829026  -0.640715666412 0.25026044  0.00522581  0.2079781 0.7000
 16   -491.3201028117  -0.836319909108 0.47361760  0.01232409  0.0310117 0.0000
 17   -487.8114070373   3.508695774469 0.02307744  0.00039401  0.4122157 0.7000
 18   -487.8445133391  -0.033106301852 0.02937020  0.00044434  0.4073993 0.7000
 19   -487.8734387295  -0.028925390374 0.02782631  0.00039865  0.4057585 0.7000
               *** Restarting incremental Fock matrix formation ***
                                   *** Resetting DIIS ***

 WARNING: the maximum gradient error descreased on average only by a factor   1.0
          during the last 20 iterations

                      *** Initiating the TRAH-SCF procedure ***


TRAH GRIDX
----------

General Integration Accuracy     IntAcc      ... 3.067
Radial Grid Type                 RadialGrid  ... OptM3 with GC (2021)
Angular Grid (max. ang.)         AngularGrid ... 1 (Lebedev-50)
Angular grid pruning method      GridPruning ... 4 (adaptive)
Weight generation scheme         WeightScheme... Becke
Basis function cutoff            BFCut       ... 1.0000e-11
Integration weight cutoff        WCut        ... 1.0000e-14
Angular grids for H and He will be reduced by one unit
Partially contracted basis set               ... on
Rotationally invariant grid construction     ... off

Total number of grid points                  ...     5613
Total number of batches                      ...       98
Average number of points per batch           ...       57
Average number of grid points per atom       ...      330


TRAH GRID
---------

General Integration Accuracy     IntAcc      ... 3.467
Radial Grid Type                 RadialGrid  ... OptM3 with GC (2021)
Angular Grid (max. ang.)         AngularGrid ... 1 (Lebedev-50)
Angular grid pruning method      GridPruning ... 4 (adaptive)
Weight generation scheme         WeightScheme... Becke
Basis function cutoff            BFCut       ... 1.0000e-11
Integration weight cutoff        WCut        ... 1.0000e-14
Angular grids for H and He will be reduced by one unit
Partially contracted basis set               ... off
Rotationally invariant grid construction     ... off

Total number of grid points                  ...    12335
Total number of batches                      ...      201
Average number of points per batch           ...       61
Average number of grid points per atom       ...      726

 --------------------------------------------------------------------------------------------
   Iter.        energy            ||Error||_2        Shift      TRadius  Mac/Mic        Rej.
 --------------------------------------------------------------------------------------------
WARNING: 589 diagonal Hessian elements are negative!
    0       -487.931791989166     3.727631e+00                     0.400 (TRAH MAcro)   No
WARNING : negative HOMO - LUMO gap : -2.272998
    0     dE    -6.164474e-01     1.128087e+00    -7.3954e+00      0.228 (TRAH MIcro)
    0     dE    -6.501652e-01     1.041451e-01    -7.5934e+00      0.238 (TRAH MIcro)
    0     dE    -6.610092e-01     2.991138e-01    -7.6017e+00      0.243 (TRAH MIcro)
    0     dE    -4.956049e-01     1.539819e-01    -1.4513e+01      0.163 (TRAH MIcro)
    0     dE    -4.956913e-01     9.148124e-02    -1.4517e+01      0.163 (TRAH MIcro)
    0     dE    -4.956628e-01     6.487013e-02    -1.4518e+01      0.163 (TRAH MIcro)
    0     dE    -4.955642e-01     1.199894e-02    -1.4519e+01      0.163 (TRAH MIcro)
    0     dE    -4.955511e-01     3.027523e-03    -1.4520e+01      0.163 (TRAH MIcro)
WARNING: 536 diagonal Hessian elements are negative!
    1       -488.425144972299     2.331199e+00                     0.480 (TRAH MAcro)   No
WARNING : negative HOMO - LUMO gap : -2.060157
    1     dE    -2.438284e-01     4.015692e-01    -7.9184e+00      0.141 (TRAH MIcro)
    1     dE    -2.537903e-01     5.430972e-02    -8.0644e+00      0.146 (TRAH MIcro)
    1     dE    -2.539806e-01     1.357090e-02    -8.0667e+00      0.146 (TRAH MIcro)
    1     dE    -2.540024e-01     5.112614e-03    -8.0670e+00      0.146 (TRAH MIcro)
WARNING: 480 diagonal Hessian elements are negative!
    2       -488.678303367779     1.162700e+00                     0.576 (TRAH MAcro)   No
WARNING : negative HOMO - LUMO gap : -1.887485
    2     dE    -6.715370e-02     2.279500e-01    -7.0561e+00      0.078 (TRAH MIcro)
    2     dE    -7.984487e-01     6.075084e+00    -4.3372e+00      0.576 (TRAH MIcro)
    2     dE    -1.309153e+00     1.499306e-01    -7.5989e+00      0.576 (TRAH MIcro)
    2     dE    -1.310097e+00     8.435972e-02    -7.6047e+00      0.576 (TRAH MIcro)
    2     dE    -1.310314e+00     3.647167e-02    -7.6064e+00      0.576 (TRAH MIcro)
    2     dE    -1.310381e+00     1.224622e-02    -7.6070e+00      0.576 (TRAH MIcro)
    2     dE    -1.310389e+00     6.688726e-03    -7.6071e+00      0.576 (TRAH MIcro)
WARNING: 321 diagonal Hessian elements are negative!
    3       -489.701964793248     2.658965e+00                     0.691 (TRAH MAcro)   No
WARNING : negative HOMO - LUMO gap : -1.291187
    3     dE    -1.938978e+00     1.374201e+00    -4.2702e+00      0.691 (TRAH MIcro)
    3     dE    -1.997394e+00     5.487234e-01    -4.6043e+00      0.691 (TRAH MIcro)
    3     dE    -2.008373e+00     1.905351e-01    -4.6410e+00      0.691 (TRAH MIcro)
    3     dE    -2.009704e+00     1.538687e-01    -4.6457e+00      0.691 (TRAH MIcro)
    3     dE    -1.562072e+00     7.429537e-02    -5.6055e+00      0.549 (TRAH MIcro)
    3     dE    -1.560288e+00     4.582448e-02    -5.6060e+00      0.548 (TRAH MIcro)
    3     dE    -1.560010e+00     1.875408e-02    -5.6061e+00      0.548 (TRAH MIcro)
    3     dE    -1.559773e+00     6.238715e-03    -5.6061e+00      0.548 (TRAH MIcro)
WARNING: 90 diagonal Hessian elements are negative!
    4       -490.948438905269     1.573393e+00                     0.829 (TRAH MAcro)   No
WARNING : negative HOMO - LUMO gap : -0.759129
    4     dE    -3.825885e-01     1.277148e+00    -6.4903e-01      0.423 (TRAH MIcro)
    4     dE    -3.458323e-01     1.189235e-01    -3.4012e+00      0.298 (TRAH MIcro)
    4     dE    -3.648218e-01     4.757174e-02    -3.4097e+00      0.315 (TRAH MIcro)
    4     dE    -3.705324e-01     1.723574e-02    -3.4107e+00      0.320 (TRAH MIcro)
    4     dE    -3.720821e-01     7.239954e-03    -3.4109e+00      0.321 (TRAH MIcro)
WARNING: 44 diagonal Hessian elements are negative!
    5       -491.303404289373     9.502825e-01                     0.995 (TRAH MAcro)   No
WARNING : negative HOMO - LUMO gap : -0.512623
    5     dE    -4.293709e-01     3.879228e+00    -5.9209e-01      0.671 (TRAH MIcro)
    5     dE    -1.185359e+00     4.573658e-01    -2.2480e+00      0.894 (TRAH MIcro)
    5     dE    -1.231421e+00     4.565724e-02    -2.2650e+00      0.912 (TRAH MIcro)
    5     dE    -1.231874e+00     1.544594e-02    -2.2652e+00      0.912 (TRAH MIcro)
    5     dE    -1.231995e+00     2.623870e-03    -2.2652e+00      0.912 (TRAH MIcro)
WARNING: 9 diagonal Hessian elements are negative!
    6       -491.660556369985     1.058248e+00                     0.995 (TRAH MAcro)   No
WARNING : negative HOMO - LUMO gap : -0.162002
    6     dE    -6.567849e-02     7.642069e-01    -1.2923e-01      0.128 (TRAH MIcro)
    6     dE    -1.035180e-01     4.186824e-01    -1.8977e-01      0.302 (TRAH MIcro)
    6     dE    -3.044909e-01     1.301814e+00    -3.2204e-01      0.995 (TRAH MIcro)
    6     dE    -3.446635e-01     3.034916e-01    -5.3942e-01      0.909 (TRAH MIcro)
    6     dE    -3.783703e-01     1.387325e-01    -5.4791e-01      0.964 (TRAH MIcro)
    6     dE    -3.840799e-01     5.981866e-02    -5.4929e-01      0.973 (TRAH MIcro)
    6     dE    -3.852516e-01     3.473316e-02    -5.4970e-01      0.975 (TRAH MIcro)
    6     dE    -3.873998e-01     6.484165e-02    -5.5011e-01      0.978 (TRAH MIcro)
    6     dE    -3.974759e-01     5.332943e-02    -5.5152e-01      0.995 (TRAH MIcro)
    6     dE    -3.977902e-01     3.729216e-02    -5.5354e-01      0.995 (TRAH MIcro)
    6     dE    -3.980109e-01     4.183201e-02    -5.5505e-01      0.995 (TRAH MIcro)
    6     dE    -3.982274e-01     1.658678e-02    -5.5658e-01      0.995 (TRAH MIcro)
    6     dE    -3.982553e-01     9.132027e-03    -5.5678e-01      0.995 (TRAH MIcro)
 ---------------------------------
          TRAH Step control 
 ---------------------------------
  predicted energy change = -0.398255
  actual energy  change   = 0.552268
  energy change ratio     = -1.386718
  old trust radius        = 0.995328
  new trust radius        = 0.696730
  reject step?            =  1
    7       -491.660556369985     9.502825e-01                     0.697 (TRAH MAcro)  Yes
WARNING: 9 diagonal Hessian elements are negative!
    8       -491.660556369986     1.058248e+00                     0.697 (TRAH MAcro)   No
WARNING : negative HOMO - LUMO gap : -0.162002
    8     dE    -6.566099e-02     7.631227e-01    -1.2920e-01      0.128 (TRAH MIcro)
    8     dE    -1.032341e-01     4.237695e-01    -1.8939e-01      0.300 (TRAH MIcro)
    8     dE    -2.159198e-01     8.135038e-01    -3.9510e-01      0.697 (TRAH MIcro)
    8     dE    -2.504670e-01     1.893163e-01    -5.8517e-01      0.697 (TRAH MIcro)
