
                                 *****************
                                 * O   R   C   A *
                                 *****************

                                            #,                                       
                                            ###                                      
                                            ####                                     
                                            #####                                    
                                            ######                                   
                                           ########,                                 
                                     ,,################,,,,,                         
                               ,,#################################,,                 
                          ,,##########################################,,             
                       ,#########################################, ''#####,          
                    ,#############################################,,   '####,        
                  ,##################################################,,,,####,       
                ,###########''''           ''''###############################       
              ,#####''   ,,,,##########,,,,          '''####'''          '####       
            ,##' ,,,,###########################,,,                        '##       
           ' ,,###''''                  '''############,,,                           
         ,,##''                                '''############,,,,        ,,,,,,###''
      ,#''                                            '''#######################'''  
     '                                                          ''''####''''         
             ,#######,   #######,   ,#######,      ##                                
            ,#'     '#,  ##    ##  ,#'     '#,    #''#        ######   ,####,        
            ##       ##  ##   ,#'  ##            #'  '#       #        #'  '#        
            ##       ##  #######   ##           ,######,      #####,   #    #        
            '#,     ,#'  ##    ##  '#,     ,#' ,#      #,         ##   #,  ,#        
             '#######'   ##     ##  '#######'  #'      '#     #####' # '####'        



                  #######################################################
                  #                        -***-                        #
                  #          Department of theory and spectroscopy      #
                  #    Directorship and core code : Frank Neese         #
                  #        Max Planck Institute fuer Kohlenforschung    #
                  #                Kaiser Wilhelm Platz 1               #
                  #                 D-45470 Muelheim/Ruhr               #
                  #                      Germany                        #
                  #                                                     #
                  #                  All rights reserved                #
                  #                        -***-                        #
                  #######################################################



                         Program Version 5.0.4 -  RELEASE  -

 With contributions from (in alphabetic order):
   Daniel Aravena         : Magnetic Suceptibility
   Michael Atanasov       : Ab Initio Ligand Field Theory (pilot matlab implementation)
   Alexander A. Auer      : GIAO ZORA, VPT2 properties, NMR spectrum
   Ute Becker             : Parallelization
   Giovanni Bistoni       : ED, misc. LED, open-shell LED, HFLD
   Martin Brehm           : Molecular dynamics
   Dmytro Bykov           : SCF Hessian
   Vijay G. Chilkuri      : MRCI spin determinant printing, contributions to CSF-ICE
   Dipayan Datta          : RHF DLPNO-CCSD density
   Achintya Kumar Dutta   : EOM-CC, STEOM-CC
   Dmitry Ganyushin       : Spin-Orbit,Spin-Spin,Magnetic field MRCI
   Miquel Garcia          : C-PCM and meta-GGA Hessian, CC/C-PCM, Gaussian charge scheme
   Yang Guo               : DLPNO-NEVPT2, F12-NEVPT2, CIM, IAO-localization
   Andreas Hansen         : Spin unrestricted coupled pair/coupled cluster methods
   Benjamin Helmich-Paris : MC-RPA, TRAH-SCF, COSX integrals
   Lee Huntington         : MR-EOM, pCC
   Robert Izsak           : Overlap fitted RIJCOSX, COSX-SCS-MP3, EOM
   Marcus Kettner         : VPT2
   Christian Kollmar      : KDIIS, OOCD, Brueckner-CCSD(T), CCSD density, CASPT2, CASPT2-K
   Simone Kossmann        : Meta GGA functionals, TD-DFT gradient, OOMP2, MP2 Hessian
   Martin Krupicka        : Initial AUTO-CI
   Lucas Lang             : DCDCAS
   Marvin Lechner         : AUTO-CI (C++ implementation), FIC-MRCC
   Dagmar Lenk            : GEPOL surface, SMD
   Dimitrios Liakos       : Extrapolation schemes; Compound Job, initial MDCI parallelization
   Dimitrios Manganas     : Further ROCIS development; embedding schemes
   Dimitrios Pantazis     : SARC Basis sets
   Anastasios Papadopoulos: AUTO-CI, single reference methods and gradients
   Taras Petrenko         : DFT Hessian,TD-DFT gradient, ASA, ECA, R-Raman, ABS, FL, XAS/XES, NRVS
   Peter Pinski           : DLPNO-MP2, DLPNO-MP2 Gradient
   Christoph Reimann      : Effective Core Potentials
   Marius Retegan         : Local ZFS, SOC
   Christoph Riplinger    : Optimizer, TS searches, QM/MM, DLPNO-CCSD(T), (RO)-DLPNO pert. Triples
   Tobias Risthaus        : Range-separated hybrids, TD-DFT gradient, RPA, STAB
   Michael Roemelt        : Original ROCIS implementation
   Masaaki Saitow         : Open-shell DLPNO-CCSD energy and density
   Barbara Sandhoefer     : DKH picture change effects
   Avijit Sen             : IP-ROCIS
   Kantharuban Sivalingam : CASSCF convergence, NEVPT2, FIC-MRCI
   Bernardo de Souza      : ESD, SOC TD-DFT
   Georgi Stoychev        : AutoAux, RI-MP2 NMR, DLPNO-MP2 response
   Willem Van den Heuvel  : Paramagnetic NMR
   Boris Wezisla          : Elementary symmetry handling
   Frank Wennmohs         : Technical directorship


 We gratefully acknowledge several colleagues who have allowed us to
 interface, adapt or use parts of their codes:
   Stefan Grimme, W. Hujo, H. Kruse, P. Pracht,  : VdW corrections, initial TS optimization,
                  C. Bannwarth, S. Ehlert          DFT functionals, gCP, sTDA/sTD-DF
   Ed Valeev, F. Pavosevic, A. Kumar             : LibInt (2-el integral package), F12 methods
   Garnet Chan, S. Sharma, J. Yang, R. Olivares  : DMRG
   Ulf Ekstrom                                   : XCFun DFT Library
   Mihaly Kallay                                 : mrcc  (arbitrary order and MRCC methods)
   Jiri Pittner, Ondrej Demel                    : Mk-CCSD
   Frank Weinhold                                : gennbo (NPA and NBO analysis)
   Christopher J. Cramer and Donald G. Truhlar   : smd solvation model
   Lars Goerigk                                  : TD-DFT with DH, B97 family of functionals
   V. Asgeirsson, H. Jonsson                     : NEB implementation
   FAccTs GmbH                                   : IRC, NEB, NEB-TS, DLPNO-Multilevel, CI-OPT
                                                   MM, QMMM, 2- and 3-layer-ONIOM, Crystal-QMMM,
                                                   LR-CPCM, SF, NACMEs, symmetry and pop. for TD-DFT,
                                                   nearIR, NL-DFT gradient (VV10), updates on ESD,
                                                   ML-optimized integration grids
   S Lehtola, MJT Oliveira, MAL Marques          : LibXC Library
   Liviu Ungur et al                             : ANISO software


 Your calculation uses the libint2 library for the computation of 2-el integrals
 For citations please refer to: http://libint.valeyev.net

 Your ORCA version has been built with support for libXC version: 5.1.0
 For citations please refer to: https://tddft.org/programs/libxc/

 This ORCA versions uses:
   CBLAS   interface :  Fast vector & matrix operations
   LAPACKE interface :  Fast linear algebra routines
   Shared memory     :  Shared parallel matrices


================================================================================

----- Orbital basis set information -----
Your calculation utilizes the basis: def2-QZVP
   F. Weigend and R. Ahlrichs, Phys. Chem. Chem. Phys. 7, 3297 (2005).

================================================================================
                                        WARNINGS
                       Please study these warnings very carefully!
================================================================================


WARNING: Geometry Optimization
  ===> : Switching off AutoStart
         For restart on a previous wavefunction, please use MOREAD

WARNING: Post HF methods need fully converged wavefunctions
  ===> : Setting SCFConvForced true
         You can overwrite this default with %scf ConvForced false 


WARNING: MDCI localization with Augmented Hessian Foster-Boys
  ===> : Switching off randomization!

INFO   : the flag for use of the SHARK integral package has been found!



***************************************
The coordinates will be read from file: first_job.xyz
***************************************


================================================================================

----- Orbital basis set information -----
Your calculation utilizes the basis: def2-TZVP
   F. Weigend and R. Ahlrichs, Phys. Chem. Chem. Phys. 7, 3297 (2005).

----- AuxJ basis set information -----
Your calculation utilizes the auxiliary basis: def2/J
   F. Weigend, Phys. Chem. Chem. Phys. 8, 1057 (2006).

================================================================================
                                        WARNINGS
                       Please study these warnings very carefully!
================================================================================


INFO   : the flag for use of the SHARK integral package has been found!

================================================================================
                                       INPUT FILE
================================================================================
NAME = e_c_14.inp
|  1> !CCSD(T) DEF2-QZVP NumGrad OPT
|  2> 
|  3> %base "first_job"
|  4> 
|  5> * xyz 1 1
|  6>   C   -5.68864025007199      0.74375697940424      4.02279963313618
|  7>   C   -6.14017478281601      1.48752803661525      2.89479801700060
|  8>   C   -6.03577510452864      0.96860095727281      1.61512919679120
|  9>   C   -5.47671551789388     -0.31067808542453      1.42174229638733
| 10>   C   -5.02516667533910     -1.06251571606448      2.52737726342718
| 11>   C   -5.13038656319973     -0.54172380422492      3.80827956130628
| 12>   C   -5.80219044545854      1.32185478537185      5.39342595030213
| 13>   H   -5.47568151075062      0.62058386935549      6.17291648473423
| 14>   H   -6.84190537608322      1.63110850063137      5.60405156790145
| 15>   H   -5.19467969317582      2.24286556186927      5.47547721675407
| 16>   H   -6.57338048436388      2.47867051326444      3.05213474531913
| 17>   H   -6.38467649074386      1.54541398407473      0.75588032905486
| 18>   H   -5.39272090817148     -0.72245752042804      0.41310965395308
| 19>   H   -4.59377490734198     -2.05350886881684      2.37011864130417
| 20>   H   -4.78267860356755     -1.12027465846136      4.66726950684610
| 21>   N   -10.72303025727538     -2.04355384202885    -23.95949870294162
| 22>   O   -10.31248685872961     -1.95063071645687    -22.88200324132554
| 23>   O   -10.56999081643787     -2.21775338079966    -25.09257128368711
| 24> *
| 25> 
| 26> $new_job
| 27> 
| 28> !B3LYP DEF2-TZVP FREQ SOSCF
| 29> 
| 30> %base "second job"
| 31> 
| 32> * XYZfile 1 1 first_job.xyz
| 33> 
| 34> 
| 35> 
| 36>                          ****END OF INPUT****
================================================================================


                 $$$$$$$$$$$$$$$$$$$$$$$$$$$$$$$$$$$$$$$$$$$$$$ 
                 $ THERE ARE  2 JOBS TO BE PROCESSED THIS RUN $
                 $$$$$$$$$$$$$$$$$$$$$$$$$$$$$$$$$$$$$$$$$$$$$$ 




                 $$$$$$$$$$$$$$$$  JOB NUMBER  1 $$$$$$$$$$$$$$


                       *****************************
                       * Geometry Optimization Run *
                       *****************************

Geometry optimization settings:
Update method            Update   .... BFGS
Choice of coordinates    CoordSys .... Z-matrix Internals
Initial Hessian          InHess   .... Almoef's Model

Convergence Tolerances:
Energy Change            TolE     ....  5.0000e-06 Eh
Max. Gradient            TolMAXG  ....  3.0000e-04 Eh/bohr
RMS Gradient             TolRMSG  ....  1.0000e-04 Eh/bohr
Max. Displacement        TolMAXD  ....  4.0000e-03 bohr
RMS Displacement         TolRMSD  ....  2.0000e-03 bohr
Strict Convergence                ....  False
------------------------------------------------------------------------------
                        ORCA OPTIMIZATION COORDINATE SETUP
------------------------------------------------------------------------------

The optimization will be done in new redundant internal coordinates
Making redundant internal coordinates   ...  (new redundants) done
Evaluating the initial hessian          ...  (Almloef) done
Evaluating the coordinates              ...  done
Calculating the B-matrix                .... done
Calculating the G-matrix                .... done
Diagonalizing the G-matrix              .... done
Small eigenvalue found = 1.893e-02
The first mode is                       ....   54
The number of degrees of freedom        ....   48

    -----------------------------------------------------------------
                    Redundant Internal Coordinates


    -----------------------------------------------------------------
         Definition                    Initial Value    Approx d2E/dq
    -----------------------------------------------------------------
      1. B(C   1,C   0)                  1.4246         0.550233   
      2. B(C   2,C   1)                  1.3848         0.636791   
      3. B(C   3,C   2)                  1.4094         0.581748   
      4. B(C   4,C   3)                  1.4112         0.577909   
      5. B(C   5,C   4)                  1.3867         0.632359   
      6. B(C   5,C   0)                  1.4178         0.564160   
      7. B(C   6,C   0)                  1.4919         0.429729   
      8. B(H   7,C   6)                  1.0982         0.349443   
      9. B(H   8,C   6)                  1.1050         0.340803   
     10. B(H   9,C   6)                  1.1064         0.339078   
     11. B(H  10,C   1)                  1.0931         0.356072   
     12. B(H  11,C   2)                  1.0921         0.357290   
     13. B(H  12,C   3)                  1.0927         0.356568   
     14. B(H  13,C   4)                  1.0922         0.357204   
     15. B(H  14,C   5)                  1.0925         0.356850   
     16. B(O  16,H  12)                 23.8406         0.000000   
     17. B(O  16,H  11)                 24.2157         0.000000   
     18. B(O  16,C   3)                 24.8344         0.000000   
     19. B(O  16,N  15)                  1.1568         1.180523   
     20. B(O  17,N  15)                  1.1566         1.181568   
     21. A(C   1,C   0,C   5)          118.5789         0.417769   
     22. A(C   1,C   0,C   6)          120.0674         0.398126   
     23. A(C   5,C   0,C   6)          121.3532         0.399880   
     24. A(C   0,C   1,H  10)          119.0161         0.345220   
     25. A(C   0,C   1,C   2)          120.8068         0.426905   
     26. A(C   2,C   1,H  10)          120.1770         0.353835   
     27. A(C   3,C   2,H  11)          119.8776         0.348671   
     28. A(C   1,C   2,C   3)          119.7894         0.431191   
     29. A(C   1,C   2,H  11)          120.3330         0.354040   
     30. A(H  12,C   3,O  16)           24.0384         0.089000   
     31. A(C   2,C   3,O  16)           96.7177         0.089000   
     32. A(C   4,C   3,H  12)          119.8561         0.348164   
     33. A(C   4,C   3,O  16)          142.5454         0.089000   
     34. A(C   2,C   3,C   4)          120.1970         0.423759   
     35. A(C   2,C   3,H  12)          119.9469         0.348553   
     36. A(C   5,C   4,H  13)          120.2465         0.353607   
     37. A(C   3,C   4,H  13)          119.7991         0.348268   
     38. A(C   3,C   4,C   5)          119.9544         0.430139   
     39. A(C   4,C   5,H  14)          120.2149         0.353547   
     40. A(C   0,C   5,C   4)          120.6734         0.428285   
     41. A(C   0,C   5,H  14)          119.1116         0.346802   
     42. A(H   8,C   6,H   9)          105.6373         0.285643   
     43. A(H   7,C   6,H   9)          108.4025         0.286761   
     44. A(C   0,C   6,H   9)          110.4210         0.328612   
     45. A(H   7,C   6,H   8)          108.8551         0.286988   
     46. A(C   0,C   6,H   8)          110.8048         0.328888   
     47. A(C   0,C   6,H   7)          112.4600         0.330251   
     48. A(C   2,H  11,O  16)          138.0354         0.089000   
     49. A(C   3,H  12,O  16)          154.8918         0.089000   
     50. A(O  16,N  15,O  17)          151.3630         0.535783   
     51. A(H  11,O  16,N  15)          168.0655         0.089000   
     52. A(C   3,O  16,N  15)          170.3864         0.089000   
     53. A(H  11,O  16,H  12)            5.8941         0.089000   
     54. A(H  12,O  16,N  15)          170.9351         0.089000   
     55. D(C   2,C   1,C   0,C   6)    179.6637         0.020712   
     56. D(H  10,C   1,C   0,C   5)    179.8940         0.020712   
     57. D(H  10,C   1,C   0,C   6)     -0.3762         0.020712   
     58. D(C   2,C   1,C   0,C   5)     -0.0661         0.020712   
     59. D(C   3,C   2,C   1,H  10)   -179.9543         0.028155   
     60. D(H  11,C   2,C   1,C   0)    179.9829         0.028155   
     61. D(C   3,C   2,C   1,C   0)      0.0053         0.028155   
     62. D(H  11,C   2,C   1,H  10)      0.0233         0.028155   
     63. D(O  16,C   3,C   2,H  11)     -6.5287         0.025256   
     64. D(H  12,C   3,C   2,H  11)      0.0474         0.025256   
     65. D(H  12,C   3,C   2,C   1)   -179.9749         0.025256   
     66. D(C   4,C   3,C   2,C   1)      0.0524         0.025256   
     67. D(C   4,C   3,C   2,H  11)   -179.9253         0.025256   
     68. D(O  16,C   3,C   2,C   1)    173.4490         0.025256   
     69. D(C   5,C   4,C   3,C   2)     -0.0481         0.024907   
     70. D(H  13,C   4,C   3,O  16)     10.7734         0.024907   
     71. D(H  13,C   4,C   3,H  12)     -0.0238         0.024907   
     72. D(H  13,C   4,C   3,C   2)    179.9489         0.024907   
     73. D(C   5,C   4,C   3,O  16)   -169.2236         0.024907   
     74. D(C   5,C   4,C   3,H  12)    179.9792         0.024907   
     75. D(H  14,C   5,C   4,H  13)     -0.0298         0.027739   
     76. D(C   0,C   5,C   4,H  13)    179.9887         0.027739   
     77. D(C   0,C   5,C   4,C   3)     -0.0143         0.027739   
     78. D(H  14,C   5,C   0,C   6)      0.3627         0.021814   
     79. D(C   4,C   5,C   0,C   6)   -179.6556         0.021814   
     80. D(H  14,C   5,C   4,C   3)    179.9672         0.027739   
     81. D(C   4,C   5,C   0,C   1)      0.0705         0.021814   
     82. D(H  14,C   5,C   0,C   1)   -179.9112         0.021814   
     83. D(H   8,C   6,C   0,C   1)     54.3622         0.013639   
     84. D(H   7,C   6,C   0,C   5)     -3.8314         0.013639   
     85. D(H   7,C   6,C   0,C   1)    176.4465         0.013639   
     86. D(H   9,C   6,C   0,C   5)    117.3952         0.013639   
     87. D(H   9,C   6,C   0,C   1)    -62.3270         0.013639   
     88. D(H   8,C   6,C   0,C   5)   -125.9157         0.013639   
     89. D(O  16,H  11,C   2,C   3)      9.9732         0.107560   
     90. D(O  16,H  11,C   2,C   1)   -170.0043         0.107560   
     91. D(O  16,H  12,C   3,C   4)    163.7595         0.118591   
     92. D(O  16,H  12,C   3,C   2)    -16.2133         0.118591   
     93. D(H  12,O  16,N  15,O  17)   -160.1457         0.160128   
     94. D(C   3,O  16,N  15,O  17)   -165.8094         0.160128   
     95. D(H  11,O  16,H  12,C   3)     14.0539         0.001500   
     96. D(N  15,O  16,H  12,C   3)    -61.9783         0.001500   
     97. D(H  12,O  16,H  11,C   2)     -8.8352         0.001500   
     98. D(N  15,O  16,H  11,C   2)    123.4879         0.001500   
     99. D(N  15,O  16,C   3,H  12)    123.6105         0.001500   
    100. D(H  11,O  16,N  15,O  17)    171.0448         0.160128   
    101. D(N  15,O  16,C   3,C   4)    100.1043         0.001500   
    102. D(N  15,O  16,C   3,C   2)    -70.4891         0.001500   
    -----------------------------------------------------------------

Number of atoms                         .... 18
Number of degrees of freedom            .... 102

         *************************************************************
         *                GEOMETRY OPTIMIZATION CYCLE   1            *
         *************************************************************
---------------------------------
CARTESIAN COORDINATES (ANGSTROEM)
---------------------------------
  C     -5.688640    0.743757    4.022800
  C     -6.140175    1.487528    2.894798
  C     -6.035775    0.968601    1.615129
  C     -5.476716   -0.310678    1.421742
  C     -5.025167   -1.062516    2.527377
  C     -5.130387   -0.541724    3.808280
  C     -5.802190    1.321855    5.393426
  H     -5.475682    0.620584    6.172916
  H     -6.841905    1.631109    5.604052
  H     -5.194680    2.242866    5.475477
  H     -6.573380    2.478671    3.052135
  H     -6.384676    1.545414    0.755880
  H     -5.392721   -0.722458    0.413110
  H     -4.593775   -2.053509    2.370119
  H     -4.782679   -1.120275    4.667270
  N    -10.723030   -2.043554  -23.959499
  O    -10.312487   -1.950631  -22.882003
  O    -10.569991   -2.217753  -25.092571

----------------------------
CARTESIAN COORDINATES (A.U.)
----------------------------
  NO LB      ZA    FRAG     MASS         X           Y           Z
   0 C     6.0000    0    12.011  -10.749972    1.405497    7.601990
   1 C     6.0000    0    12.011  -11.603249    2.811021    5.470375
   2 C     6.0000    0    12.011  -11.405962    1.830391    3.052152
   3 C     6.0000    0    12.011  -10.349492   -0.587096    2.686704
   4 C     6.0000    0    12.011   -9.496189   -2.007864    4.776051
   5 C     6.0000    0    12.011   -9.695026   -1.023710    7.196605
   6 C     6.0000    0    12.011  -10.964551    2.497944   10.192098
   7 H     1.0000    0     1.008  -10.347538    1.172734   11.665122
   8 H     1.0000    0     1.008  -12.929327    3.082348   10.590123
   9 H     1.0000    0     1.008   -9.816522    4.238402   10.347152
  10 H     1.0000    0     1.008  -12.421889    4.684008    5.767699
  11 H     1.0000    0     1.008  -12.065290    2.920409    1.428407
  12 H     1.0000    0     1.008  -10.190766   -1.365247    0.780664
  13 H     1.0000    0     1.008   -8.680976   -3.880569    4.478875
  14 H     1.0000    0     1.008   -9.037953   -2.117012    8.819861
  15 N     7.0000    0    14.007  -20.263591   -3.861757  -45.276891
  16 O     8.0000    0    15.999  -19.487776   -3.686158  -43.240720
  17 O     8.0000    0    15.999  -19.974388   -4.190947  -47.418088

--------------------------------
INTERNAL COORDINATES (ANGSTROEM)
--------------------------------
 C      0   0   0     0.000000000000     0.00000000     0.00000000
 C      1   0   0     1.424593438778     0.00000000     0.00000000
 C      2   1   0     1.384823777929   120.80682226     0.00000000
 C      3   2   1     1.409432858898   119.78943150     0.00000000
 C      4   3   2     1.411235225042   120.19700263     0.05244663
 C      5   4   3     1.386724968027   119.95436923   359.95191903
 C      1   2   3     1.491880431350   120.06735249   179.66366007
 H      7   1   2     1.098177797701   112.45997699   176.44650361
 H      7   1   2     1.104992374704   110.80476106    54.36215232
 H      7   1   2     1.106373614513   110.42103437   297.67304598
 H      2   1   3     1.093062411278   119.01613765   179.96015196
 H      3   2   1     1.092132804149   120.33298066   179.98294088
 H      4   3   2     1.092683487996   119.94687951   180.02511024
 H      5   4   3     1.092198040893   119.79913350   179.94888148
 H      6   5   4     1.092467684954   120.21490623   179.96716306
 N     13   4   3    24.983625264694   154.69295727   342.92350195
 O     16  13   4     1.156796031787     8.64691898   118.80272079
 O     16  13   4     1.156555239925   159.30403589   146.22675432

---------------------------
INTERNAL COORDINATES (A.U.)
---------------------------
 C      0   0   0     0.000000000000     0.00000000     0.00000000
 C      1   0   0     2.692091451472     0.00000000     0.00000000
 C      2   1   0     2.616937684028   120.80682226     0.00000000
 C      3   2   1     2.663442107466   119.78943150     0.00000000
 C      4   3   2     2.666848085873   120.19700263     0.05244663
 C      5   4   3     2.620530412643   119.95436923   359.95191903
 C      1   2   3     2.819245439808   120.06735249   179.66366007
 H      7   1   2     2.075255284008   112.45997699   176.44650361
 H      7   1   2     2.088132968263   110.80476106    54.36215232
 H      7   1   2     2.090743133226   110.42103437   297.67304598
 H      2   1   3     2.065588604600   119.01613765   179.96015196
 H      3   2   1     2.063831901712   120.33298066   179.98294088
 H      4   3   2     2.064872543369   119.94687951   180.02511024
 H      5   4   3     2.063955181292   119.79913350   179.94888148
 H      6   5   4     2.064464734721   120.21490623   179.96716306
 N     13   4   3    47.212209582788   154.69295727   342.92350195
 O     16  13   4     2.186027692885     8.64691898   118.80272079
 O     16  13   4     2.185572662209   159.30403589   146.22675432

---------------------
BASIS SET INFORMATION
---------------------
There are 4 groups of distinct atoms

 Group   1 Type C   : 15s8p3d2f1g contracted to 7s4p3d2f1g pattern {8211111/5111/111/11/1}
 Group   2 Type H   : 7s3p2d1f contracted to 4s3p2d1f pattern {4111/111/11/1}
 Group   3 Type N   : 15s8p3d2f1g contracted to 7s4p3d2f1g pattern {8211111/5111/111/11/1}
 Group   4 Type O   : 15s8p3d2f1g contracted to 7s4p3d2f1g pattern {8211111/5111/111/11/1}

Atom   0C    basis set group =>   1
Atom   1C    basis set group =>   1
Atom   2C    basis set group =>   1
Atom   3C    basis set group =>   1
Atom   4C    basis set group =>   1
Atom   5C    basis set group =>   1
Atom   6C    basis set group =>   1
Atom   7H    basis set group =>   2
Atom   8H    basis set group =>   2
Atom   9H    basis set group =>   2
Atom  10H    basis set group =>   2
Atom  11H    basis set group =>   2
Atom  12H    basis set group =>   2
Atom  13H    basis set group =>   2
Atom  14H    basis set group =>   2
Atom  15N    basis set group =>   3
Atom  16O    basis set group =>   4
Atom  17O    basis set group =>   4
------------------------------------------------------------------------------
                           ORCA GTO INTEGRAL CALCULATION
------------------------------------------------------------------------------
------------------------------------------------------------------------------
                   ___                                                        
                  /   \      - P O W E R E D   B Y -                         
                 /     \                                                     
                 |  |  |   _    _      __       _____    __    __             
                 |  |  |  | |  | |    /  \     |  _  \  |  |  /  |          
                  \  \/   | |  | |   /    \    | | | |  |  | /  /          
                 / \  \   | |__| |  /  /\  \   | |_| |  |  |/  /          
                |  |  |   |  __  | /  /__\  \  |    /   |      \           
                |  |  |   | |  | | |   __   |  |    \   |  |\   \          
                \     /   | |  | | |  |  |  |  | |\  \  |  | \   \       
                 \___/    |_|  |_| |__|  |__|  |_| \__\ |__|  \__/        
                                                                              
                      - O R C A' S   B I G   F R I E N D -                    
                                      &                                       
                       - I N T E G R A L  F E E D E R -                       
                                                                              
 v1 FN, 2020, v2 2021                                                         
------------------------------------------------------------------------------


Reading SHARK input file first_job.SHARKINP.tmp ... ok
----------------------
SHARK INTEGRAL PACKAGE
----------------------

Number of atoms                             ...     18
Number of basis functions                   ...    810
Number of shells                            ...    250
Maximum angular momentum                    ...      4
Integral batch strategy                     ... SHARK/LIBINT Hybrid
RI-J (if used) integral strategy            ... SPLIT-RIJ (Revised 2003 algorithm where possible)
Printlevel                                  ...      1
Contraction scheme used                     ... SEGMENTED contraction
Coulomb Range Separation                    ... NOT USED
Exchange Range Separation                   ... NOT USED
Finite Nucleus Model                        ... NOT USED
Auxiliary Coulomb fitting basis             ... NOT available
Auxiliary J/K fitting basis                 ... NOT available
Auxiliary Correlation fitting basis         ... NOT available
Auxiliary 'external' fitting basis          ... NOT available
Integral threshold                          ...     2.500000e-11
Primitive cut-off                           ...     2.500000e-12
Primitive pair pre-selection threshold      ...     2.500000e-12

Calculating pre-screening integrals         ... done (  2.0 sec) Dimension = 250
Organizing shell pair data                  ... done (  1.4 sec)
Shell pair information
Total number of shell pairs                 ...     31375
Shell pairs after pre-screening             ...     18553
Total number of primitive shell pairs       ...     78253
Primitive shell pairs kept                  ...     35583
          la=0 lb=0:   2942 shell pairs
          la=1 lb=0:   3953 shell pairs
          la=1 lb=1:   1344 shell pairs
          la=2 lb=0:   2709 shell pairs
          la=2 lb=1:   1829 shell pairs
          la=2 lb=2:    644 shell pairs
          la=3 lb=0:   1628 shell pairs
          la=3 lb=1:   1091 shell pairs
          la=3 lb=2:    750 shell pairs
          la=3 lb=3:    239 shell pairs
          la=4 lb=0:    588 shell pairs
          la=4 lb=1:    375 shell pairs
          la=4 lb=2:    266 shell pairs
          la=4 lb=3:    161 shell pairs
          la=4 lb=4:     34 shell pairs

Calculating one electron integrals          ... done (  0.6 sec)
Calculating Nuclear repulsion               ... done (  0.0 sec) ENN=    356.187175865595 Eh

SHARK setup successfully completed in   7.3 seconds

Maximum memory used throughout the entire GTOINT-calculation: 615.8 MB
-------------------------------------------------------------------------------
                                 ORCA SCF
-------------------------------------------------------------------------------

------------
SCF SETTINGS
------------
Hamiltonian:
 Ab initio Hamiltonian  Method          .... Hartree-Fock(GTOs)


General Settings:
 Integral files         IntName         .... first_job
 Hartree-Fock type      HFTyp           .... RHF
 Total Charge           Charge          ....    1
 Multiplicity           Mult            ....    1
 Number of Electrons    NEL             ....   72
 Basis Dimension        Dim             ....  810
 Nuclear Repulsion      ENuc            ....    356.1871758656 Eh

Convergence Acceleration:
 DIIS                   CNVDIIS         .... on
   Start iteration      DIISMaxIt       ....    12
   Startup error        DIISStart       ....  0.200000
   # of expansion vecs  DIISMaxEq       ....     5
   Bias factor          DIISBfac        ....   1.050
   Max. coefficient     DIISMaxC        ....  10.000
 Trust-Rad. Augm. Hess. CNVTRAH         .... auto
   Auto Start mean grad. ratio tolernc. ....  1.125000
   Auto Start start iteration           ....    20
   Auto Start num. interpolation iter.  ....    10
   Max. Number of Micro iterations      ....    16
   Max. Number of Macro iterations      .... Maxiter - #DIIS iter
   Number of Davidson start vectors     ....     2
   Converg. threshold I  (grad. norm)   ....   1.000e-05
   Converg. threshold II (energy diff.) ....   1.000e-08
   Grad. Scal. Fac. for Micro threshold ....   0.100
   Minimum threshold for Micro iter.    ....   0.010
   NR start threshold (gradient norm)   ....   0.001
   Initial trust radius                 ....   0.400
   Minimum AH scaling param. (alpha)    ....   1.000
   Maximum AH scaling param. (alpha)    .... 1000.000
   Orbital update algorithm             .... Taylor
   White noise on init. David. guess    .... on
   Maximum white noise                  ....   0.010
   Quad. conv. algorithm                .... NR
 SOSCF                  CNVSOSCF        .... on
   Start iteration      SOSCFMaxIt      ....   150
   Startup grad/error   SOSCFStart      ....  0.003300
 Level Shifting         CNVShift        .... on
   Level shift para.    LevelShift      ....    0.2500
   Turn off err/grad.   ShiftErr        ....    0.0010
 Zerner damping         CNVZerner       .... off
 Static damping         CNVDamp         .... on
   Fraction old density DampFac         ....    0.7000
   Max. Damping (<1)    DampMax         ....    0.9800
   Min. Damping (>=0)   DampMin         ....    0.0000
   Turn off err/grad.   DampErr         ....    0.1000
 Fernandez-Rico         CNVRico         .... off

SCF Procedure:
 Maximum # iterations   MaxIter         ....   125
 SCF integral mode      SCFMode         .... Direct
   Integral package                     .... SHARK and LIBINT hybrid scheme
 Reset frequency        DirectResetFreq ....    20
 Integral Threshold     Thresh          ....  2.500e-11 Eh
 Primitive CutOff       TCut            ....  2.500e-12 Eh

Convergence Tolerance:
 Convergence Check Mode ConvCheckMode   .... Total+1el-Energy
 Convergence forced     ConvForced      .... 1
 Energy Change          TolE            ....  1.000e-08 Eh
 1-El. energy change                    ....  1.000e-05 Eh
 Orbital Gradient       TolG            ....  1.000e-05
 Orbital Rotation angle TolX            ....  1.000e-05
 DIIS Error             TolErr          ....  5.000e-07


Diagonalization of the overlap matrix:
Smallest eigenvalue                        ... 7.129e-06
Time for diagonalization                   ...    0.249 sec
Threshold for overlap eigenvalues          ... 1.000e-08
Number of eigenvalues below threshold      ... 0
Time for construction of square roots      ...    0.188 sec
Total time needed                          ...    0.438 sec

Time for model grid setup =    1.177 sec

------------------------------
INITIAL GUESS: MODEL POTENTIAL
------------------------------
Loading Hartree-Fock densities                     ... done
Calculating cut-offs                               ... done
Initializing the effective Hamiltonian             ... done
Setting up the integral package (SHARK)            ... done
Starting the Coulomb interaction                   ... done (   3.6 sec)
Reading the grid                                   ... done
Mapping shells                                     ... done
Starting the XC term evaluation                    ... done (   1.7 sec)
Transforming the Hamiltonian                       ... done (   0.1 sec)
Diagonalizing the Hamiltonian                      ... done (   0.2 sec)
Back transforming the eigenvectors                 ... done (   0.1 sec)
Now organizing SCF variables                       ... done
                      ------------------
                      INITIAL GUESS DONE (   6.9 sec)
                      ------------------
--------------
SCF ITERATIONS
--------------
ITER       Energy         Delta-E        Max-DP      RMS-DP      [F,P]     Damp
               ***  Starting incremental Fock matrix formation  ***
  0   -473.1238106703   0.000000000000 0.01879028  0.00022498  0.3910688 0.7000
  1   -473.2816050564  -0.157794386094 0.01567176  0.00017627  0.2819376 0.7000
  2   -473.3771383297  -0.095533273239 0.01105231  0.00011984  0.2063239 0.7000
                               ***Turning on DIIS***
  3   -473.4388798859  -0.061741556229 0.00747526  0.00008198  0.1495218 0.7000
  4   -473.9764785572  -0.537598671310 0.00607689  0.00006085  0.1076283 0.7000
  5   -473.9013312908   0.075147266448 0.01702058  0.00015520  0.0758980 0.0000
  6   -473.5950944334   0.306236857401 0.00270345  0.00001658  0.0048161 0.0000
                      *** Initiating the SOSCF procedure ***
                           *** Shutting down DIIS ***
                      *** Re-Reading the Fockian *** 
                      *** Removing any level shift *** 
ITER      Energy       Delta-E        Grad      Rot      Max-DP    RMS-DP
  7   -473.58475625   0.0103381808  0.002394  0.002394  0.001199  0.000008
               *** Restarting incremental Fock matrix formation ***
  8   -473.58208713   0.0026691267  0.001051  0.000957  0.001075  0.000006
  9   -473.58209574  -0.0000086173  0.000890  0.001051  0.000532  0.000004
 10   -473.58209943  -0.0000036830  0.000067  0.000084  0.000086  0.000001
 11   -473.58209956  -0.0000001350  0.000027  0.000106  0.000055  0.000001
 12   -473.58209960  -0.0000000397  0.000010  0.000033  0.000014  0.000000
                 **** Energy Check signals convergence ****
              ***Rediagonalizing the Fockian in SOSCF/NRSCF***

               *****************************************************
               *                     SUCCESS                       *
               *           SCF CONVERGED AFTER  13 CYCLES          *
               *****************************************************


----------------
TOTAL SCF ENERGY
----------------

Total Energy       :         -473.58209960 Eh          -12886.82408 eV

Components:
Nuclear Repulsion  :          356.18717587 Eh            9692.34580 eV
Electronic Energy  :         -829.76927547 Eh          -22579.16989 eV
One Electron Energy:        -1338.98205054 Eh          -36435.55394 eV
Two Electron Energy:          509.21277507 Eh           13856.38405 eV

Virial components:
Potential Energy   :         -945.86234835 Eh          -25738.22300 eV
Kinetic Energy     :          472.28024875 Eh           12851.39892 eV
Virial Ratio       :            2.00275652


---------------
SCF CONVERGENCE
---------------

  Last Energy change         ...   -2.8398e-09  Tolerance :   1.0000e-08
  Last MAX-Density change    ...    1.1703e-05  Tolerance :   1.0000e-07
  Last RMS-Density change    ...    1.3471e-07  Tolerance :   5.0000e-09
  Last Orbital Gradient      ...    6.2292e-06  Tolerance :   1.0000e-05
  Last Orbital Rotation      ...    3.1387e-05  Tolerance :   1.0000e-05

             **** THE GBW FILE WAS UPDATED (first_job.gbw) ****
             **** DENSITY first_job.scfp WAS UPDATED ****
             **** ENERGY FILE WAS UPDATED (first_job.en.tmp) ****
             **** THE GBW FILE WAS UPDATED (first_job.gbw) ****
             **** DENSITY first_job.scfp WAS UPDATED ****
----------------
ORBITAL ENERGIES
----------------

  NO   OCC          E(Eh)            E(eV) 
   0   2.0000     -21.108969      -574.4042 
   1   2.0000     -21.108834      -574.4006 
   2   2.0000     -16.312944      -443.8978 
   3   2.0000     -11.265130      -306.5398 
   4   2.0000     -11.255460      -306.2766 
   5   2.0000     -11.255059      -306.2657 
   6   2.0000     -11.252583      -306.1984 
   7   2.0000     -11.250726      -306.1478 
   8   2.0000     -11.250278      -306.1356 
   9   2.0000     -11.244363      -305.9747 
  10   2.0000      -2.073363       -56.4191 
  11   2.0000      -1.917017       -52.1647 
  12   2.0000      -1.275394       -34.7052 
  13   2.0000      -1.167186       -31.7608 
  14   2.0000      -1.164942       -31.6997 
  15   2.0000      -1.164539       -31.6887 
  16   2.0000      -1.162090       -31.6221 
  17   2.0000      -1.058525       -28.8039 
  18   2.0000      -1.031203       -28.0605 
  19   2.0000      -0.945831       -25.7374 
  20   2.0000      -0.912200       -24.8222 
  21   2.0000      -0.905585       -24.6422 
  22   2.0000      -0.837800       -22.7977 
  23   2.0000      -0.814105       -22.1529 
  24   2.0000      -0.706787       -19.2327 
  25   2.0000      -0.651046       -17.7158 
  26   2.0000      -0.649064       -17.6619 
  27   2.0000      -0.603835       -16.4312 
  28   2.0000      -0.589677       -16.0459 
  29   2.0000      -0.580620       -15.7995 
  30   2.0000      -0.557470       -15.1695 
  31   2.0000      -0.509967       -13.8769 
  32   2.0000      -0.502627       -13.6772 
  33   2.0000      -0.500570       -13.6212 
  34   2.0000      -0.357067        -9.7163 
  35   2.0000      -0.335398        -9.1266 
  36   0.0000      -0.327949        -8.9239 
  37   0.0000      -0.258422        -7.0320 
  38   0.0000      -0.033526        -0.9123 
  39   0.0000       0.025922         0.7054 
  40   0.0000       0.029362         0.7990 
  41   0.0000       0.033155         0.9022 
  42   0.0000       0.088884         2.4187 
  43   0.0000       0.092771         2.5244 
  44   0.0000       0.099048         2.6952 
  45   0.0000       0.101577         2.7640 
  46   0.0000       0.104428         2.8416 
  47   0.0000       0.119529         3.2526 
  48   0.0000       0.128085         3.4854 
  49   0.0000       0.134159         3.6506 
  50   0.0000       0.153484         4.1765 
  51   0.0000       0.155928         4.2430 
  52   0.0000       0.156563         4.2603 
  53   0.0000       0.157848         4.2953 
  54   0.0000       0.160816         4.3760 
  55   0.0000       0.171325         4.6620 
  56   0.0000       0.185369         5.0442 
  57   0.0000       0.194751         5.2994 
  58   0.0000       0.214882         5.8472 
  59   0.0000       0.218530         5.9465 
  60   0.0000       0.219959         5.9854 
  61   0.0000       0.226742         6.1700 
  62   0.0000       0.236177         6.4267 
  63   0.0000       0.237698         6.4681 
  64   0.0000       0.240961         6.5569 
  65   0.0000       0.243785         6.6337 
  66   0.0000       0.249317         6.7843 
  67   0.0000       0.269631         7.3370 
  68   0.0000       0.274214         7.4618 
  69   0.0000       0.279350         7.6015 
  70   0.0000       0.293101         7.9757 
  71   0.0000       0.310206         8.4411 
  72   0.0000       0.335134         9.1194 
  73   0.0000       0.341535         9.2936 
  74   0.0000       0.342813         9.3284 
  75   0.0000       0.364143         9.9088 
  76   0.0000       0.379737        10.3332 
  77   0.0000       0.385610        10.4930 
  78   0.0000       0.390867        10.6360 
  79   0.0000       0.401525        10.9260 
  80   0.0000       0.402506        10.9528 
  81   0.0000       0.408720        11.1218 
  82   0.0000       0.421144        11.4599 
  83   0.0000       0.447841        12.1864 
  84   0.0000       0.458847        12.4859 
  85   0.0000       0.463503        12.6126 
  86   0.0000       0.468788        12.7564 
  87   0.0000       0.475067        12.9272 
  88   0.0000       0.475316        12.9340 
  89   0.0000       0.486293        13.2327 
  90   0.0000       0.490363        13.3435 
  91   0.0000       0.494612        13.4591 
  92   0.0000       0.497833        13.5467 
  93   0.0000       0.517124        14.0716 
  94   0.0000       0.523938        14.2571 
  95   0.0000       0.526217        14.3191 
  96   0.0000       0.536201        14.5908 
  97   0.0000       0.554703        15.0942 
  98   0.0000       0.574044        15.6205 
  99   0.0000       0.590489        16.0680 
 100   0.0000       0.595557        16.2059 
 101   0.0000       0.603715        16.4279 
 102   0.0000       0.630293        17.1511 
 103   0.0000       0.636830        17.3290 
 104   0.0000       0.639330        17.3971 
 105   0.0000       0.641745        17.4628 
 106   0.0000       0.660112        17.9626 
 107   0.0000       0.664945        18.0941 
 108   0.0000       0.675122        18.3710 
 109   0.0000       0.694757        18.9053 
 110   0.0000       0.704267        19.1641 
 111   0.0000       0.736792        20.0491 
 112   0.0000       0.741675        20.1820 
 113   0.0000       0.754481        20.5305 
 114   0.0000       0.757843        20.6220 
 115   0.0000       0.775331        21.0978 
 116   0.0000       0.788761        21.4633 
 117   0.0000       0.794482        21.6190 
 118   0.0000       0.801460        21.8088 
 119   0.0000       0.805579        21.9209 
 120   0.0000       0.817066        22.2335 
 121   0.0000       0.831266        22.6199 
 122   0.0000       0.849362        23.1123 
 123   0.0000       0.860166        23.4063 
 124   0.0000       0.864916        23.5356 
 125   0.0000       0.883874        24.0514 
 126   0.0000       0.888276        24.1712 
 127   0.0000       0.892809        24.2946 
 128   0.0000       0.894180        24.3319 
 129   0.0000       0.901191        24.5227 
 130   0.0000       0.914186        24.8763 
 131   0.0000       0.914892        24.8955 
 132   0.0000       0.923013        25.1165 
 133   0.0000       0.924926        25.1685 
 134   0.0000       0.929454        25.2917 
 135   0.0000       0.932533        25.3755 
 136   0.0000       0.950666        25.8689 
 137   0.0000       0.953852        25.9556 
 138   0.0000       0.968937        26.3661 
 139   0.0000       0.974644        26.5214 
 140   0.0000       0.984393        26.7867 
 141   0.0000       0.986841        26.8533 
 142   0.0000       0.992870        27.0174 
 143   0.0000       1.017579        27.6897 
 144   0.0000       1.025253        27.8986 
 145   0.0000       1.035018        28.1643 
 146   0.0000       1.039037        28.2736 
 147   0.0000       1.059180        28.8217 
 148   0.0000       1.066446        29.0195 
 149   0.0000       1.073811        29.2199 
 150   0.0000       1.080236        29.3947 
 151   0.0000       1.083827        29.4924 
 152   0.0000       1.088674        29.6243 
 153   0.0000       1.094619        29.7861 
 154   0.0000       1.110143        30.2085 
 155   0.0000       1.126406        30.6511 
 156   0.0000       1.142408        31.0865 
 157   0.0000       1.143653        31.1204 
 158   0.0000       1.147746        31.2317 
 159   0.0000       1.151244        31.3269 
 160   0.0000       1.155298        31.4373 
 161   0.0000       1.168817        31.8051 
 162   0.0000       1.170961        31.8635 
 163   0.0000       1.183285        32.1988 
 164   0.0000       1.191039        32.4098 
 165   0.0000       1.207033        32.8450 
 166   0.0000       1.207230        32.8504 
 167   0.0000       1.212808        33.0022 
 168   0.0000       1.220615        33.2146 
 169   0.0000       1.240873        33.7659 
 170   0.0000       1.256708        34.1968 
 171   0.0000       1.265138        34.4261 
 172   0.0000       1.269588        34.5472 
 173   0.0000       1.274040        34.6684 
 174   0.0000       1.284195        34.9447 
 175   0.0000       1.292323        35.1659 
 176   0.0000       1.295898        35.2632 
 177   0.0000       1.301896        35.4264 
 178   0.0000       1.302861        35.4527 
 179   0.0000       1.313748        35.7489 
 180   0.0000       1.319749        35.9122 
 181   0.0000       1.342344        36.5270 
 182   0.0000       1.345086        36.6016 
 183   0.0000       1.378459        37.5098 
 184   0.0000       1.398002        38.0416 
 185   0.0000       1.399792        38.0903 
 186   0.0000       1.411922        38.4203 
 187   0.0000       1.418763        38.6065 
 188   0.0000       1.427322        38.8394 
 189   0.0000       1.433588        39.0099 
 190   0.0000       1.464776        39.8586 
 191   0.0000       1.476981        40.1907 
 192   0.0000       1.500227        40.8233 
 193   0.0000       1.510630        41.1063 
 194   0.0000       1.537161        41.8283 
 195   0.0000       1.562149        42.5082 
 196   0.0000       1.569042        42.6958 
 197   0.0000       1.583503        43.0893 
 198   0.0000       1.593824        43.3702 
 199   0.0000       1.607880        43.7526 
 200   0.0000       1.616235        43.9800 
 201   0.0000       1.651495        44.9395 
 202   0.0000       1.692357        46.0514 
 203   0.0000       1.696958        46.1766 
 204   0.0000       1.729084        47.0508 
 205   0.0000       1.746274        47.5185 
 206   0.0000       1.769504        48.1506 
 207   0.0000       1.782873        48.5144 
 208   0.0000       1.799673        48.9716 
 209   0.0000       1.803947        49.0879 
 210   0.0000       1.826709        49.7073 
 211   0.0000       1.860299        50.6213 
 212   0.0000       1.885132        51.2970 
 213   0.0000       1.893979        51.5378 
 214   0.0000       1.920060        52.2475 
 215   0.0000       1.938365        52.7456 
 216   0.0000       1.948964        53.0340 
 217   0.0000       1.958460        53.2924 
 218   0.0000       1.971221        53.6397 
 219   0.0000       1.972372        53.6710 
 220   0.0000       1.985141        54.0184 
 221   0.0000       2.001470        54.4628 
 222   0.0000       2.009227        54.6738 
 223   0.0000       2.016908        54.8828 
 224   0.0000       2.031053        55.2678 
 225   0.0000       2.038527        55.4711 
 226   0.0000       2.050218        55.7893 
 227   0.0000       2.058770        56.0220 
 228   0.0000       2.061036        56.0837 
 229   0.0000       2.074076        56.4385 
 230   0.0000       2.115007        57.5523 
 231   0.0000       2.122259        57.7496 
 232   0.0000       2.132855        58.0379 
 233   0.0000       2.141457        58.2720 
 234   0.0000       2.156312        58.6762 
 235   0.0000       2.162652        58.8487 
 236   0.0000       2.178230        59.2726 
 237   0.0000       2.183461        59.4150 
 238   0.0000       2.184513        59.4436 
 239   0.0000       2.191969        59.6465 
 240   0.0000       2.192968        59.6737 
 241   0.0000       2.198589        59.8266 
 242   0.0000       2.216273        60.3079 
 243   0.0000       2.229029        60.6549 
 244   0.0000       2.242286        61.0157 
 245   0.0000       2.260822        61.5201 
 246   0.0000       2.279031        62.0156 
 247   0.0000       2.287278        62.2400 
 248   0.0000       2.290953        62.3400 
 249   0.0000       2.299557        62.5741 
 250   0.0000       2.303051        62.6692 
 251   0.0000       2.319305        63.1115 
 252   0.0000       2.329460        63.3878 
 253   0.0000       2.343113        63.7593 
 254   0.0000       2.352102        64.0039 
 255   0.0000       2.361765        64.2669 
 256   0.0000       2.364782        64.3490 
 257   0.0000       2.371023        64.5188 
 258   0.0000       2.390237        65.0417 
 259   0.0000       2.409055        65.5537 
 260   0.0000       2.414188        65.6934 
 261   0.0000       2.418084        65.7994 
 262   0.0000       2.422980        65.9326 
 263   0.0000       2.439018        66.3690 
 264   0.0000       2.453139        66.7533 
 265   0.0000       2.463541        67.0364 
 266   0.0000       2.470347        67.2215 
 267   0.0000       2.477041        67.4037 
 268   0.0000       2.486434        67.6593 
 269   0.0000       2.490046        67.7576 
 270   0.0000       2.509873        68.2971 
 271   0.0000       2.518178        68.5231 
 272   0.0000       2.523069        68.6562 
 273   0.0000       2.532185        68.9042 
 274   0.0000       2.538633        69.0797 
 275   0.0000       2.546813        69.3023 
 276   0.0000       2.546848        69.3033 
 277   0.0000       2.566041        69.8255 
 278   0.0000       2.574137        70.0458 
 279   0.0000       2.603748        70.8516 
 280   0.0000       2.619861        71.2900 
 281   0.0000       2.622330        71.3572 
 282   0.0000       2.624968        71.4290 
 283   0.0000       2.626750        71.4775 
 284   0.0000       2.637412        71.7676 
 285   0.0000       2.670622        72.6713 
 286   0.0000       2.675203        72.7960 
 287   0.0000       2.684714        73.0548 
 288   0.0000       2.697925        73.4143 
 289   0.0000       2.706983        73.6607 
 290   0.0000       2.717593        73.9495 
 291   0.0000       2.719637        74.0051 
 292   0.0000       2.739126        74.5354 
 293   0.0000       2.740940        74.5848 
 294   0.0000       2.751313        74.8670 
 295   0.0000       2.760183        75.1084 
 296   0.0000       2.787219        75.8441 
 297   0.0000       2.788512        75.8793 
 298   0.0000       2.812580        76.5342 
 299   0.0000       2.818328        76.6906 
 300   0.0000       2.824260        76.8520 
 301   0.0000       2.834324        77.1259 
 302   0.0000       2.841229        77.3138 
 303   0.0000       2.851138        77.5834 
 304   0.0000       2.867912        78.0399 
 305   0.0000       2.870908        78.1214 
 306   0.0000       2.888201        78.5919 
 307   0.0000       2.893971        78.7490 
 308   0.0000       2.909681        79.1764 
 309   0.0000       2.915791        79.3427 
 310   0.0000       2.922076        79.5137 
 311   0.0000       2.926644        79.6380 
 312   0.0000       2.929444        79.7142 
 313   0.0000       2.946033        80.1656 
 314   0.0000       2.966909        80.7337 
 315   0.0000       2.970582        80.8337 
 316   0.0000       2.977432        81.0200 
 317   0.0000       2.986307        81.2616 
 318   0.0000       2.999968        81.6333 
 319   0.0000       3.007871        81.8483 
 320   0.0000       3.023374        82.2702 
 321   0.0000       3.023586        82.2759 
 322   0.0000       3.028083        82.3983 
 323   0.0000       3.038858        82.6915 
 324   0.0000       3.043986        82.8311 
 325   0.0000       3.051459        83.0344 
 326   0.0000       3.068384        83.4950 
 327   0.0000       3.077254        83.7363 
 328   0.0000       3.088848        84.0518 
 329   0.0000       3.114735        84.7563 
 330   0.0000       3.119059        84.8739 
 331   0.0000       3.127149        85.0941 
 332   0.0000       3.166193        86.1565 
 333   0.0000       3.173302        86.3499 
 334   0.0000       3.185383        86.6787 
 335   0.0000       3.197651        87.0125 
 336   0.0000       3.204391        87.1959 
 337   0.0000       3.225643        87.7742 
 338   0.0000       3.239779        88.1589 
 339   0.0000       3.276742        89.1647 
 340   0.0000       3.303061        89.8809 
 341   0.0000       3.307117        89.9912 
 342   0.0000       3.321546        90.3839 
 343   0.0000       3.334780        90.7440 
 344   0.0000       3.363866        91.5355 
 345   0.0000       3.368960        91.6741 
 346   0.0000       3.374025        91.8119 
 347   0.0000       3.402682        92.5917 
 348   0.0000       3.426540        93.2409 
 349   0.0000       3.433895        93.4410 
 350   0.0000       3.437546        93.5404 
 351   0.0000       3.475526        94.5739 
 352   0.0000       3.481059        94.7244 
 353   0.0000       3.510206        95.5176 
 354   0.0000       3.519086        95.7592 
 355   0.0000       3.549930        96.5985 
 356   0.0000       3.557659        96.8088 
 357   0.0000       3.587752        97.6277 
 358   0.0000       3.597998        97.9065 
 359   0.0000       3.598387        97.9171 
 360   0.0000       3.606115        98.1274 
 361   0.0000       3.606147        98.1283 
 362   0.0000       3.647704        99.2591 
 363   0.0000       3.654949        99.4562 
 364   0.0000       3.673939        99.9730 
 365   0.0000       3.682415       100.2036 
 366   0.0000       3.683125       100.2229 
 367   0.0000       3.692692       100.4833 
 368   0.0000       3.715887       101.1144 
 369   0.0000       3.728829       101.4666 
 370   0.0000       3.735783       101.6558 
 371   0.0000       3.740720       101.7902 
 372   0.0000       3.756556       102.2211 
 373   0.0000       3.779259       102.8389 
 374   0.0000       3.793663       103.2308 
 375   0.0000       3.808313       103.6295 
 376   0.0000       3.825166       104.0881 
 377   0.0000       3.856062       104.9288 
 378   0.0000       3.861444       105.0752 
 379   0.0000       3.869725       105.3006 
 380   0.0000       3.875170       105.4487 
 381   0.0000       3.894547       105.9760 
 382   0.0000       3.900191       106.1296 
 383   0.0000       3.900862       106.1479 
 384   0.0000       3.913649       106.4958 
 385   0.0000       3.926309       106.8403 
 386   0.0000       3.960247       107.7638 
 387   0.0000       3.978393       108.2576 
 388   0.0000       3.990366       108.5834 
 389   0.0000       4.017299       109.3163 
 390   0.0000       4.068803       110.7178 
 391   0.0000       4.087274       111.2204 
 392   0.0000       4.111470       111.8788 
 393   0.0000       4.120358       112.1206 
 394   0.0000       4.135529       112.5335 
 395   0.0000       4.151350       112.9640 
 396   0.0000       4.162596       113.2700 
 397   0.0000       4.193788       114.1188 
 398   0.0000       4.194847       114.1476 
 399   0.0000       4.229900       115.1014 
 400   0.0000       4.233797       115.2075 
 401   0.0000       4.235701       115.2593 
 402   0.0000       4.271310       116.2283 
 403   0.0000       4.283715       116.5658 
 404   0.0000       4.355331       118.5146 
 405   0.0000       4.376095       119.0796 
 406   0.0000       4.377246       119.1109 
 407   0.0000       4.382310       119.2487 
 408   0.0000       4.434228       120.6615 
 409   0.0000       4.441392       120.8564 
 410   0.0000       4.442943       120.8986 
 411   0.0000       4.488834       122.1474 
 412   0.0000       4.499232       122.4303 
 413   0.0000       4.505827       122.6098 
 414   0.0000       4.571702       124.4023 
 415   0.0000       4.619465       125.7020 
 416   0.0000       4.634356       126.1072 
 417   0.0000       4.698535       127.8536 
 418   0.0000       4.702817       127.9702 
 419   0.0000       4.716444       128.3410 
 420   0.0000       4.747828       129.1950 
 421   0.0000       4.776282       129.9692 
 422   0.0000       4.808866       130.8559 
 423   0.0000       4.841977       131.7569 
 424   0.0000       4.877075       132.7120 
 425   0.0000       4.883113       132.8763 
 426   0.0000       4.888957       133.0353 
 427   0.0000       4.991392       135.8227 
 428   0.0000       5.024057       136.7115 
 429   0.0000       5.059740       137.6825 
 430   0.0000       5.078897       138.2038 
 431   0.0000       5.090572       138.5215 
 432   0.0000       5.138902       139.8366 
 433   0.0000       5.149664       140.1295 
 434   0.0000       5.196258       141.3974 
 435   0.0000       5.212015       141.8261 
 436   0.0000       5.239217       142.5663 
 437   0.0000       5.277091       143.5970 
 438   0.0000       5.357968       145.7977 
 439   0.0000       5.367760       146.0642 
 440   0.0000       5.376046       146.2896 
 441   0.0000       5.376385       146.2989 
 442   0.0000       5.399138       146.9180 
 443   0.0000       5.416050       147.3782 
 444   0.0000       5.453750       148.4041 
 445   0.0000       5.455717       148.4576 
 446   0.0000       5.489742       149.3835 
 447   0.0000       5.498193       149.6134 
 448   0.0000       5.532034       150.5343 
 449   0.0000       5.557593       151.2298 
 450   0.0000       5.561474       151.3354 
 451   0.0000       5.574998       151.7034 
 452   0.0000       5.592270       152.1734 
 453   0.0000       5.612661       152.7283 
 454   0.0000       5.641565       153.5148 
 455   0.0000       5.698267       155.0577 
 456   0.0000       5.714787       155.5073 
 457   0.0000       5.720573       155.6647 
 458   0.0000       5.725138       155.7889 
 459   0.0000       5.730179       155.9261 
 460   0.0000       5.749435       156.4501 
 461   0.0000       5.794879       157.6867 
 462   0.0000       5.811045       158.1266 
 463   0.0000       5.817152       158.2928 
 464   0.0000       5.825428       158.5180 
 465   0.0000       5.843905       159.0207 
 466   0.0000       5.856056       159.3514 
 467   0.0000       5.868123       159.6797 
 468   0.0000       5.880918       160.0279 
 469   0.0000       5.888120       160.2239 
 470   0.0000       5.922599       161.1621 
 471   0.0000       5.964027       162.2894 
 472   0.0000       5.979736       162.7169 
 473   0.0000       6.016927       163.7289 
 474   0.0000       6.023054       163.8956 
 475   0.0000       6.023351       163.9037 
 476   0.0000       6.040322       164.3655 
 477   0.0000       6.056682       164.8107 
 478   0.0000       6.102415       166.0552 
 479   0.0000       6.107290       166.1878 
 480   0.0000       6.131040       166.8341 
 481   0.0000       6.141935       167.1305 
 482   0.0000       6.159366       167.6049 
 483   0.0000       6.165643       167.7757 
 484   0.0000       6.173729       167.9957 
 485   0.0000       6.187960       168.3830 
 486   0.0000       6.200533       168.7251 
 487   0.0000       6.231504       169.5679 
 488   0.0000       6.233708       169.6278 
 489   0.0000       6.246166       169.9668 
 490   0.0000       6.261460       170.3830 
 491   0.0000       6.265158       170.4836 
 492   0.0000       6.276654       170.7964 
 493   0.0000       6.282747       170.9622 
 494   0.0000       6.321725       172.0229 
 495   0.0000       6.324158       172.0891 
 496   0.0000       6.335026       172.3848 
 497   0.0000       6.339059       172.4946 
 498   0.0000       6.340261       172.5273 
 499   0.0000       6.359574       173.0528 
 500   0.0000       6.361566       173.1070 
 501   0.0000       6.405249       174.2957 
 502   0.0000       6.410058       174.4266 
 503   0.0000       6.423694       174.7976 
 504   0.0000       6.434150       175.0821 
 505   0.0000       6.448377       175.4693 
 506   0.0000       6.461411       175.8239 
 507   0.0000       6.469896       176.0548 
 508   0.0000       6.473403       176.1502 
 509   0.0000       6.474183       176.1715 
 510   0.0000       6.497513       176.8063 
 511   0.0000       6.502793       176.9500 
 512   0.0000       6.504206       176.9884 
 513   0.0000       6.541967       178.0160 
 514   0.0000       6.560291       178.5146 
 515   0.0000       6.560911       178.5315 
 516   0.0000       6.566383       178.6804 
 517   0.0000       6.590674       179.3414 
 518   0.0000       6.591300       179.3584 
 519   0.0000       6.607468       179.7983 
 520   0.0000       6.614999       180.0033 
 521   0.0000       6.616365       180.0404 
 522   0.0000       6.618845       180.1079 
 523   0.0000       6.625673       180.2937 
 524   0.0000       6.652765       181.0310 
 525   0.0000       6.657931       181.1715 
 526   0.0000       6.665810       181.3859 
 527   0.0000       6.669352       181.4823 
 528   0.0000       6.698640       182.2793 
 529   0.0000       6.701038       182.3445 
 530   0.0000       6.721086       182.8900 
 531   0.0000       6.737100       183.3258 
 532   0.0000       6.769678       184.2123 
 533   0.0000       6.777660       184.4295 
 534   0.0000       6.782318       184.5563 
 535   0.0000       6.800012       185.0377 
 536   0.0000       6.800470       185.0502 
 537   0.0000       6.809176       185.2871 
 538   0.0000       6.820461       185.5942 
 539   0.0000       6.825161       185.7221 
 540   0.0000       6.836131       186.0206 
 541   0.0000       6.868505       186.9015 
 542   0.0000       6.877086       187.1350 
 543   0.0000       6.893710       187.5874 
 544   0.0000       6.930758       188.5955 
 545   0.0000       6.938256       188.7995 
 546   0.0000       6.958603       189.3532 
 547   0.0000       6.968280       189.6165 
 548   0.0000       6.975600       189.8157 
 549   0.0000       6.981215       189.9685 
 550   0.0000       6.987970       190.1523 
 551   0.0000       7.002903       190.5587 
 552   0.0000       7.009561       190.7399 
 553   0.0000       7.032744       191.3707 
 554   0.0000       7.051468       191.8802 
 555   0.0000       7.058532       192.0724 
 556   0.0000       7.066071       192.2776 
 557   0.0000       7.074958       192.5194 
 558   0.0000       7.097494       193.1326 
 559   0.0000       7.102662       193.2733 
 560   0.0000       7.111283       193.5079 
 561   0.0000       7.131662       194.0624 
 562   0.0000       7.138252       194.2417 
 563   0.0000       7.201565       195.9645 
 564   0.0000       7.206677       196.1036 
 565   0.0000       7.214019       196.3034 
 566   0.0000       7.261778       197.6030 
 567   0.0000       7.279668       198.0898 
 568   0.0000       7.301612       198.6870 
 569   0.0000       7.342989       199.8129 
 570   0.0000       7.343753       199.8337 
 571   0.0000       7.380377       200.8303 
 572   0.0000       7.386712       201.0027 
 573   0.0000       7.389586       201.0809 
 574   0.0000       7.398669       201.3280 
 575   0.0000       7.409213       201.6149 
 576   0.0000       7.432473       202.2479 
 577   0.0000       7.439654       202.4433 
 578   0.0000       7.502464       204.1524 
 579   0.0000       7.532788       204.9776 
 580   0.0000       7.535821       205.0601 
 581   0.0000       7.542795       205.2499 
 582   0.0000       7.549551       205.4337 
 583   0.0000       7.587762       206.4735 
 584   0.0000       7.627941       207.5668 
 585   0.0000       7.646745       208.0785 
 586   0.0000       7.677773       208.9228 
 587   0.0000       7.688901       209.2256 
 588   0.0000       7.692546       209.3248 
 589   0.0000       7.694211       209.3701 
 590   0.0000       7.717792       210.0118 
 591   0.0000       7.724691       210.1995 
 592   0.0000       7.735350       210.4896 
 593   0.0000       7.738943       210.5874 
 594   0.0000       7.768370       211.3881 
 595   0.0000       7.780451       211.7168 
 596   0.0000       7.795068       212.1146 
 597   0.0000       7.811014       212.5485 
 598   0.0000       7.839843       213.3330 
 599   0.0000       7.846646       213.5181 
 600   0.0000       7.852534       213.6783 
 601   0.0000       7.864072       213.9923 
 602   0.0000       7.867377       214.0822 
 603   0.0000       7.894577       214.8224 
 604   0.0000       7.900850       214.9931 
 605   0.0000       7.943682       216.1586 
 606   0.0000       7.965799       216.7604 
 607   0.0000       7.979083       217.1219 
 608   0.0000       7.985704       217.3020 
 609   0.0000       7.992193       217.4786 
 610   0.0000       8.003319       217.7814 
 611   0.0000       8.009270       217.9433 
 612   0.0000       8.030485       218.5206 
 613   0.0000       8.057377       219.2524 
 614   0.0000       8.084943       220.0025 
 615   0.0000       8.097201       220.3360 
 616   0.0000       8.108849       220.6530 
 617   0.0000       8.113332       220.7750 
 618   0.0000       8.140628       221.5178 
 619   0.0000       8.163397       222.1373 
 620   0.0000       8.168767       222.2834 
 621   0.0000       8.186032       222.7533 
 622   0.0000       8.230122       223.9530 
 623   0.0000       8.249765       224.4875 
 624   0.0000       8.256603       224.6736 
 625   0.0000       8.270443       225.0502 
 626   0.0000       8.281339       225.3467 
 627   0.0000       8.285870       225.4700 
 628   0.0000       8.290793       225.6039 
 629   0.0000       8.310535       226.1411 
 630   0.0000       8.320399       226.4096 
 631   0.0000       8.331408       226.7091 
 632   0.0000       8.334354       226.7893 
 633   0.0000       8.370141       227.7631 
 634   0.0000       8.388485       228.2623 
 635   0.0000       8.396717       228.4863 
 636   0.0000       8.423740       229.2216 
 637   0.0000       8.428706       229.3567 
 638   0.0000       8.456160       230.1038 
 639   0.0000       8.470820       230.5027 
 640   0.0000       8.473239       230.5686 
 641   0.0000       8.481931       230.8051 
 642   0.0000       8.482767       230.8278 
 643   0.0000       8.533627       232.2118 
 644   0.0000       8.550052       232.6587 
 645   0.0000       8.574804       233.3323 
 646   0.0000       8.599769       234.0116 
 647   0.0000       8.602754       234.0928 
 648   0.0000       8.618893       234.5320 
 649   0.0000       8.628830       234.8024 
 650   0.0000       8.632871       234.9124 
 651   0.0000       8.669682       235.9140 
 652   0.0000       8.673308       236.0127 
 653   0.0000       8.688767       236.4334 
 654   0.0000       8.704974       236.8744 
 655   0.0000       8.713978       237.1194 
 656   0.0000       8.724546       237.4070 
 657   0.0000       8.727599       237.4900 
 658   0.0000       8.729865       237.5517 
 659   0.0000       8.739453       237.8126 
 660   0.0000       8.745901       237.9881 
 661   0.0000       8.768302       238.5976 
 662   0.0000       8.776520       238.8212 
 663   0.0000       8.781808       238.9651 
 664   0.0000       8.796830       239.3739 
 665   0.0000       8.841152       240.5800 
 666   0.0000       8.859067       241.0675 
 667   0.0000       8.860671       241.1111 
 668   0.0000       8.872405       241.4304 
 669   0.0000       8.892282       241.9713 
 670   0.0000       8.892627       241.9807 
 671   0.0000       8.893015       241.9912 
 672   0.0000       8.898236       242.1333 
 673   0.0000       8.900826       242.2038 
 674   0.0000       8.902324       242.2446 
 675   0.0000       8.932133       243.0557 
 676   0.0000       8.934342       243.1158 
 677   0.0000       8.934645       243.1240 
 678   0.0000       8.945286       243.4136 
 679   0.0000       8.972445       244.1526 
 680   0.0000       8.998301       244.8562 
 681   0.0000       9.007045       245.0942 
 682   0.0000       9.037898       245.9337 
 683   0.0000       9.047003       246.1815 
 684   0.0000       9.057530       246.4679 
 685   0.0000       9.080057       247.0809 
 686   0.0000       9.082116       247.1369 
 687   0.0000       9.082923       247.1589 
 688   0.0000       9.115952       248.0577 
 689   0.0000       9.154245       249.0997 
 690   0.0000       9.195368       250.2187 
 691   0.0000       9.196806       250.2578 
 692   0.0000       9.210357       250.6265 
 693   0.0000       9.220808       250.9109 
 694   0.0000       9.249588       251.6941 
 695   0.0000       9.250912       251.7301 
 696   0.0000       9.268051       252.1965 
 697   0.0000       9.291131       252.8245 
 698   0.0000       9.306637       253.2465 
 699   0.0000       9.322938       253.6901 
 700   0.0000       9.338115       254.1030 
 701   0.0000       9.420464       256.3439 
 702   0.0000       9.449530       257.1348 
 703   0.0000       9.461670       257.4651 
 704   0.0000       9.517296       258.9788 
 705   0.0000       9.728280       264.7200 
 706   0.0000       9.732071       264.8231 
 707   0.0000       9.737106       264.9601 
 708   0.0000       9.812360       267.0079 
 709   0.0000       9.864514       268.4271 
 710   0.0000       9.931069       270.2381 
 711   0.0000      10.009166       272.3633 
 712   0.0000      10.048782       273.4413 
 713   0.0000      10.070622       274.0356 
 714   0.0000      10.076052       274.1833 
 715   0.0000      10.086752       274.4745 
 716   0.0000      10.096865       274.7497 
 717   0.0000      10.148683       276.1597 
 718   0.0000      10.155085       276.3339 
 719   0.0000      10.174386       276.8591 
 720   0.0000      10.179763       277.0054 
 721   0.0000      10.194299       277.4010 
 722   0.0000      10.203531       277.6522 
 723   0.0000      10.209846       277.8240 
 724   0.0000      10.233733       278.4740 
 725   0.0000      10.235465       278.5212 
 726   0.0000      10.258117       279.1376 
 727   0.0000      10.291107       280.0353 
 728   0.0000      10.357353       281.8379 
 729   0.0000      10.412458       283.3374 
 730   0.0000      10.427430       283.7448 
 731   0.0000      10.486172       285.3432 
 732   0.0000      10.493380       285.5394 
 733   0.0000      10.497127       285.6414 
 734   0.0000      10.564379       287.4714 
 735   0.0000      10.578648       287.8596 
 736   0.0000      10.591324       288.2046 
 737   0.0000      10.594588       288.2934 
 738   0.0000      10.650010       289.8015 
 739   0.0000      10.661549       290.1155 
 740   0.0000      10.774054       293.1769 
 741   0.0000      10.787912       293.5540 
 742   0.0000      10.837109       294.8927 
 743   0.0000      10.867844       295.7291 
 744   0.0000      10.909519       296.8631 
 745   0.0000      10.987795       298.9931 
 746   0.0000      11.033218       300.2291 
 747   0.0000      11.033863       300.2467 
 748   0.0000      11.040115       300.4168 
 749   0.0000      11.052803       300.7620 
 750   0.0000      11.058629       300.9206 
 751   0.0000      11.094113       301.8862 
 752   0.0000      11.108443       302.2761 
 753   0.0000      11.144852       303.2668 
 754   0.0000      11.152226       303.4675 
 755   0.0000      11.159058       303.6534 
 756   0.0000      11.175013       304.0876 
 757   0.0000      11.276956       306.8616 
 758   0.0000      11.295562       307.3679 
 759   0.0000      11.371650       309.4383 
 760   0.0000      11.376890       309.5809 
 761   0.0000      11.420361       310.7638 
 762   0.0000      11.588303       315.3337 
 763   0.0000      11.818313       321.5926 
 764   0.0000      11.847820       322.3956 
 765   0.0000      11.951501       325.2169 
 766   0.0000      12.026236       327.2505 
 767   0.0000      12.167104       331.0837 
 768   0.0000      12.275671       334.0380 
 769   0.0000      12.280537       334.1704 
 770   0.0000      12.293728       334.5293 
 771   0.0000      12.298968       334.6719 
 772   0.0000      12.315545       335.1230 
 773   0.0000      12.388252       337.1015 
 774   0.0000      12.525052       340.8240 
 775   0.0000      12.608072       343.0831 
 776   0.0000      12.666611       344.6760 
 777   0.0000      13.013329       354.1107 
 778   0.0000      13.150458       357.8422 
 779   0.0000      13.326095       362.6215 
 780   0.0000      13.579964       369.5296 
 781   0.0000      13.698889       372.7657 
 782   0.0000      13.704642       372.9223 
 783   0.0000      13.861092       377.1795 
 784   0.0000      13.926169       378.9503 
 785   0.0000      14.384657       391.4264 
 786   0.0000      14.520485       395.1225 
 787   0.0000      14.540484       395.6667 
 788   0.0000      16.159684       439.7274 
 789   0.0000      16.728890       455.2162 
 790   0.0000      28.867738       785.5311 
 791   0.0000      29.360087       798.9286 
 792   0.0000      29.407459       800.2176 
 793   0.0000      29.725338       808.8676 
 794   0.0000      29.932857       814.5145 
 795   0.0000      30.017845       816.8271 
 796   0.0000      30.221522       822.3694 
 797   0.0000      38.512505      1047.9785 
 798   0.0000      48.650222      1323.8398 
 799   0.0000      49.057230      1334.9151 
 800   0.0000     149.348501      4063.9793 
 801   0.0000     149.815816      4076.6956 
 802   0.0000     149.850760      4077.6465 
 803   0.0000     150.129896      4085.2422 
 804   0.0000     150.340674      4090.9777 
 805   0.0000     150.473048      4094.5798 
 806   0.0000     150.651771      4099.4431 
 807   0.0000     199.345424      5424.4648 
 808   0.0000     255.413014      6950.1415 
 809   0.0000     255.932062      6964.2655 

                    ********************************
                    * MULLIKEN POPULATION ANALYSIS *
                    ********************************

-----------------------
MULLIKEN ATOMIC CHARGES
-----------------------
   0 C :    0.079777
   1 C :   -0.139490
   2 C :   -0.119930
   3 C :   -0.124559
   4 C :   -0.120112
   5 C :   -0.149367
   6 C :   -0.202193
   7 H :    0.071709
   8 H :    0.086098
   9 H :    0.090710
  10 H :    0.101644
  11 H :    0.109560
  12 H :    0.108313
  13 H :    0.109862
  14 H :    0.097977
  15 N :    0.728500
  16 O :    0.135642
  17 O :    0.135859
Sum of atomic charges:    1.0000000

--------------------------------
MULLIKEN REDUCED ORBITAL CHARGES
--------------------------------
  0 C s       :     3.240976  s :     3.240976
      pz      :     0.825818  p :     2.519067
      px      :     0.871027
      py      :     0.822222
      dz2     :     0.033475  d :     0.139742
      dxz     :     0.025093
      dyz     :     0.040813
      dx2y2   :     0.021695
      dxy     :     0.018667
      f0      :     0.004647  f :     0.019094
      f+1     :     0.002135
      f-1     :     0.003154
      f+2     :     0.002720
      f-2     :     0.002517
      f+3     :     0.001268
      f-3     :     0.002652
      g0      :     0.000189  g :     0.001344
      g+1     :     0.000095
      g-1     :     0.000283
      g+2     :     0.000192
      g-2     :     0.000196
      g+3     :     0.000102
      g-3     :     0.000089
      g+4     :     0.000123
      g-4     :     0.000075
  1 C s       :     3.288426  s :     3.288426
      pz      :     0.846615  p :     2.732710
      px      :     0.962052
      py      :     0.924044
      dz2     :     0.028657  d :     0.102918
      dxz     :     0.028147
      dyz     :     0.023504
      dx2y2   :     0.011228
      dxy     :     0.011381
      f0      :     0.003558  f :     0.014351
      f+1     :     0.002430
[...]
      f-2     :     0.002526
      f+3     :     0.000100
      f-3     :     0.000106
      g0      :     0.000694  g :     0.002917
      g+1     :     0.000810
      g-1     :     0.000743
      g+2     :     0.000295
      g-2     :     0.000308
      g+3     :     0.000032
      g-3     :     0.000033
      g+4     :     0.000001
      g-4     :     0.000001
 16 O s       :     3.837739  s :     3.837739
      pz      :     1.194991  p :     3.951586
      px      :     1.294084
      py      :     1.462511
      dz2     :     0.022733  d :     0.066943
      dxz     :     0.020783
      dyz     :     0.017834
      dx2y2   :     0.002824
      dxy     :     0.002768
      f0      :     0.002355  f :     0.007588
      f+1     :     0.001932
      f-1     :     0.001757
      f+2     :     0.000708
      f-2     :     0.000745
      f+3     :     0.000045
      f-3     :     0.000047
      g0      :     0.000131  g :     0.000502
      g+1     :     0.000129
      g-1     :     0.000082
      g+2     :     0.000067
      g-2     :     0.000071
      g+3     :     0.000010
      g-3     :     0.000011
      g+4     :     0.000000
      g-4     :     0.000000
 17 O s       :     3.837621  s :     3.837621
      pz      :     1.111738  p :     3.951459
      px      :     1.392253
      py      :     1.447469
      dz2     :     0.024690  d :     0.066968
      dxz     :     0.020446
      dyz     :     0.020127
      dx2y2   :     0.000852
      dxy     :     0.000852
      f0      :     0.002507  f :     0.007590
      f+1     :     0.002258
      f-1     :     0.002291
      f+2     :     0.000266
      f-2     :     0.000258
      f+3     :     0.000005
      f-3     :     0.000005
      g0      :     0.000174  g :     0.000503
      g+1     :     0.000130
      g-1     :     0.000142
      g+2     :     0.000028
      g-2     :     0.000027
      g+3     :     0.000001
      g-3     :     0.000001
      g+4     :     0.000000
      g-4     :     0.000000


                     *******************************
                     * LOEWDIN POPULATION ANALYSIS *
                     *******************************

----------------------
LOEWDIN ATOMIC CHARGES
----------------------
   0 C :   -0.095684
   1 C :    0.071220
   2 C :    0.051728
   3 C :    0.057933
   4 C :    0.055152
   5 C :    0.064096
   6 C :    0.222255
   7 H :   -0.051286
   8 H :   -0.046872
   9 H :   -0.045837
  10 H :   -0.053094
  11 H :   -0.056130
  12 H :   -0.062565
  13 H :   -0.056144
  14 H :   -0.054773
  15 N :    0.053052
  16 O :    0.473298
  17 O :    0.473650

-------------------------------
LOEWDIN REDUCED ORBITAL CHARGES
-------------------------------
  0 C s       :     2.582728  s :     2.582728
      pz      :     0.951624  p :     2.688723
      px      :     0.782911
      py      :     0.954187
      dz2     :     0.165599  d :     0.660525
      dxz     :     0.115251
      dyz     :     0.188824
      dx2y2   :     0.094714
      dxy     :     0.096137
      f0      :     0.040211  f :     0.151415
      f+1     :     0.018745
      f-1     :     0.022714
      f+2     :     0.024067
      f-2     :     0.024516
      f+3     :     0.010116
      f-3     :     0.011047
      g0      :     0.002006  g :     0.012293
      g+1     :     0.001142
      g-1     :     0.002213
      g+2     :     0.001290
      g-2     :     0.001466
      g+3     :     0.001524
      g-3     :     0.000770
      g+4     :     0.001148
      g-4     :     0.000734
  1 C s       :     2.586999  s :     2.586999
      pz      :     0.993188  p :     2.714296
      px      :     0.809024
      py      :     0.912085
      dz2     :     0.168351  d :     0.507792
      dxz     :     0.105383
      dyz     :     0.139777
      dx2y2   :     0.045573
      dxy     :     0.048708
      f0      :     0.032649  f :     0.109543
      f+1     :     0.014117
      f-1     :     0.019500
      f+2     :     0.018471
      f-2     :     0.017136
      f+3     :     0.005534
      f-3     :     0.002136
      g0      :     0.002412  g :     0.010150
      g+1     :     0.001086
      g-1     :     0.001970
      g+2     :     0.001168
      g-2     :     0.001217
      g+3     :     0.000862
      g-3     :     0.000757
      g+4     :     0.000226
      g-4     :     0.000453
  2 C s       :     2.592741  s :     2.592741
      pz      :     0.970705  p :     2.712137
      px      :     0.798455
      py      :     0.942976
      dz2     :     0.118521  d :     0.522626
      dxz     :     0.084870
      dyz     :     0.174724
      dx2y2   :     0.070405
      dxy     :     0.074106
      f0      :     0.027652  f :     0.110409
      f+1     :     0.016002
      f-1     :     0.018666
      f+2     :     0.013241
      f-2     :     0.014238
      f+3     :     0.008542
      f-3     :     0.012067
      g0      :     0.002071  g :     0.010359
      g+1     :     0.001053
      g-1     :     0.001749
      g+2     :     0.000908
      g-2     :     0.001121
      g+3     :     0.001177
      g-3     :     0.000279
      g+4     :     0.001248
      g-4     :     0.000753
  3 C s       :     2.594775  s :     2.594775
      pz      :     0.950530  p :     2.724923
      px      :     0.821141
      py      :     0.953252
      dz2     :     0.132245  d :     0.505829
      dxz     :     0.053651
      dyz     :     0.151688
      dx2y2   :     0.085052
      dxy     :     0.083194
      f0      :     0.025358  f :     0.106821
      f+1     :     0.009141
      f-1     :     0.016878
      f+2     :     0.017872
      f-2     :     0.016807
      f+3     :     0.009863
      f-3     :     0.010902
      g0      :     0.000957  g :     0.009719
      g+1     :     0.000742
      g-1     :     0.002084
      g+2     :     0.000921
      g-2     :     0.000916
      g+3     :     0.001534
      g-3     :     0.000618
      g+4     :     0.001157
      g-4     :     0.000790
  4 C s       :     2.593101  s :     2.593101
      pz      :     1.001423  p :     2.711400
      px      :     0.795240
      py      :     0.914736
      dz2     :     0.169529  d :     0.520298
      dxz     :     0.114983
      dyz     :     0.141052
      dx2y2   :     0.045991
      dxy     :     0.048743
      f0      :     0.031984  f :     0.109787
      f+1     :     0.014108
      f-1     :     0.019233
      f+2     :     0.019075
      f-2     :     0.017498
      f+3     :     0.005628
      f-3     :     0.002261
      g0      :     0.002349  g :     0.010262
      g+1     :     0.001094
      g-1     :     0.001950
      g+2     :     0.001196
      g-2     :     0.001249
      g+3     :     0.000906
      g-3     :     0.000831
      g+4     :     0.000230
      g-4     :     0.000455
  5 C s       :     2.586948  s :     2.586948
      pz      :     0.969965  p :     2.716028
      px      :     0.811316
      py      :     0.934747
      dz2     :     0.121086  d :     0.512405
      dxz     :     0.080510
      dyz     :     0.174338
      dx2y2   :     0.066462
      dxy     :     0.070009
      f0      :     0.028153  f :     0.110282
      f+1     :     0.015670
      f-1     :     0.019068
      f+2     :     0.013481
      f-2     :     0.014240
      f+3     :     0.008569
      f-3     :     0.011100
      g0      :     0.002092  g :     0.010241
      g+1     :     0.001013
      g-1     :     0.001761
      g+2     :     0.000910
      g-2     :     0.001095
      g+3     :     0.001178
      g-3     :     0.000297
      g+4     :     0.001148
      g-4     :     0.000748
  6 C s       :     2.547169  s :     2.547169
      pz      :     0.901178  p :     2.744898
      px      :     0.925516
      py      :     0.918204
      dz2     :     0.109629  d :     0.406512
      dxz     :     0.065610
      dyz     :     0.106698
      dx2y2   :     0.052608
      dxy     :     0.071967
      f0      :     0.015905  f :     0.075385
      f+1     :     0.015041
      f-1     :     0.013484
      f+2     :     0.009562
      f-2     :     0.009306
      f+3     :     0.008213
      f-3     :     0.003875
      g0      :     0.001085  g :     0.003781
      g+1     :     0.000573
      g-1     :     0.000413
      g+2     :     0.000512
      g-2     :     0.000636
      g+3     :     0.000219
      g-3     :     0.000143
      g+4     :     0.000016
      g-4     :     0.000183
  7 H s       :     0.795773  s :     0.795773
      pz      :     0.064310  p :     0.183041
      px      :     0.054671
      py      :     0.064061
      dz2     :     0.020438  d :     0.063970
      dxz     :     0.009821
      dyz     :     0.011727
      dx2y2   :     0.010894
      dxy     :     0.011091
      f0      :     0.001713  f :     0.008501
      f+1     :     0.000617
      f-1     :     0.001753
      f+2     :     0.001580
      f-2     :     0.001530
      f+3     :     0.000439
      f-3     :     0.000869
  8 H s       :     0.789605  s :     0.789605
      pz      :     0.047083  p :     0.185395
      px      :     0.083749
      py      :     0.054563
      dz2     :     0.005959  d :     0.063606
      dxz     :     0.018643
      dyz     :     0.003871
      dx2y2   :     0.013448
      dxy     :     0.021685
      f0      :     0.000859  f :     0.008266
      f+1     :     0.001259
      f-1     :     0.000262
      f+2     :     0.001029
      f-2     :     0.000916
      f+3     :     0.001787
      f-3     :     0.002153
  9 H s       :     0.788369  s :     0.788369
      pz      :     0.046639  p :     0.185708
      px      :     0.062812
      py      :     0.076257
      dz2     :     0.004666  d :     0.063540
      dxz     :     0.005029
      dyz     :     0.018037
      dx2y2   :     0.023361
      dxy     :     0.012447
      f0      :     0.001028  f :     0.008220
      f+1     :     0.000478
      f-1     :     0.000729
      f+2     :     0.000523
      f-2     :     0.001326
      f+3     :     0.001519
      f-3     :     0.002618
 10 H s       :     0.799232  s :     0.799232
      pz      :     0.039857  p :     0.183993
      px      :     0.059186
      py      :     0.084950
      dz2     :     0.005732  d :     0.061325
      dxz     :     0.004249
      dyz     :     0.019233
      dx2y2   :     0.016213
      dxy     :     0.015898
      f0      :     0.001142  f :     0.008544
      f+1     :     0.000333
      f-1     :     0.001188
      f+2     :     0.001052
      f-2     :     0.001187
      f+3     :     0.001527
      f-3     :     0.002113
 11 H s       :     0.804010  s :     0.804010
      pz      :     0.071865  p :     0.183252
      px      :     0.054896
      py      :     0.056491
      dz2     :     0.019985  d :     0.060388
      dxz     :     0.012172
      dyz     :     0.013336
      dx2y2   :     0.007539
      dxy     :     0.007355
      f0      :     0.002208  f :     0.008481
      f+1     :     0.001064
      f-1     :     0.001699
      f+2     :     0.001425
      f-2     :     0.001360
      f+3     :     0.000387
      f-3     :     0.000336
 12 H s       :     0.806570  s :     0.806570
      pz      :     0.084209  p :     0.186760
      px      :     0.052723
      py      :     0.049828
      dz2     :     0.019289  d :     0.060766
      dxz     :     0.017026
      dyz     :     0.017891
      dx2y2   :     0.003298
      dxy     :     0.003262
      f0      :     0.002810  f :     0.008469
      f+1     :     0.001727
      f-1     :     0.002101
      f+2     :     0.000848
      f-2     :     0.000847
      f+3     :     0.000072
      f-3     :     0.000064
 13 H s       :     0.803749  s :     0.803749
      pz      :     0.040995  p :     0.183517
      px      :     0.057826
      py      :     0.084696
      dz2     :     0.005540  d :     0.060403
      dxz     :     0.004218
      dyz     :     0.019462
      dx2y2   :     0.015723
      dxy     :     0.015460
      f0      :     0.001140  f :     0.008475
      f+1     :     0.000323
      f-1     :     0.001198
      f+2     :     0.001070
      f-2     :     0.001189
      f+3     :     0.001527
      f-3     :     0.002028
 14 H s       :     0.799930  s :     0.799930
      pz      :     0.072247  p :     0.184906
      px      :     0.056821
      py      :     0.055838
      dz2     :     0.019962  d :     0.061378
      dxz     :     0.012536
      dyz     :     0.013704
      dx2y2   :     0.007738
      dxy     :     0.007438
      f0      :     0.002186  f :     0.008559
      f+1     :     0.001060
      f-1     :     0.001705
      f+2     :     0.001480
      f-2     :     0.001388
      f+3     :     0.000387
      f-3     :     0.000353
 15 N s       :     2.873559  s :     2.873559
      pz      :     1.249559  p :     2.990751
      px      :     0.890354
      py      :     0.850838
      dz2     :     0.246655  d :     0.879782
      dxz     :     0.313205
      dyz     :     0.293447
      dx2y2   :     0.013419
      dxy     :     0.013057
      f0      :     0.063079  f :     0.175567
      f+1     :     0.041518
      f-1     :     0.033965
      f+2     :     0.017376
      f-2     :     0.018067
      f+3     :     0.000783
      f-3     :     0.000779
      g0      :     0.005485  g :     0.027289
      g+1     :     0.007613
      g-1     :     0.008925
      g+2     :     0.002320
      g-2     :     0.002324
      g+3     :     0.000295
      g-3     :     0.000301
      g+4     :     0.000013
      g-4     :     0.000013
 16 O s       :     3.369560  s :     3.369560
      pz      :     1.364317  p :     3.964852
      px      :     1.252883
      py      :     1.347652
      dz2     :     0.059728  d :     0.153053
      dxz     :     0.053207
      dyz     :     0.030604
      dx2y2   :     0.005251
      dxy     :     0.004262
      f0      :     0.010548  f :     0.036402
      f+1     :     0.011503
      f-1     :     0.007867
      f+2     :     0.003343
      f-2     :     0.002819
      f+3     :     0.000171
      f-3     :     0.000151
      g0      :     0.000713  g :     0.002835
      g+1     :     0.000795
      g-1     :     0.000460
      g+2     :     0.000408
      g-2     :     0.000353
      g+3     :     0.000054
      g-3     :     0.000049
      g+4     :     0.000002
      g-4     :     0.000002
 17 O s       :     3.369348  s :     3.369348
      pz      :     1.330328  p :     3.964641
      px      :     1.293044
      py      :     1.341269
      dz2     :     0.074007  d :     0.153101
      dxz     :     0.039979
      dyz     :     0.036460
      dx2y2   :     0.001249
      dxy     :     0.001405
      f0      :     0.012420  f :     0.036421
      f+1     :     0.011649
      f-1     :     0.010351
      f+2     :     0.000937
      f-2     :     0.001033
      f+3     :     0.000015
      f-3     :     0.000017
      g0      :     0.000927  g :     0.002838
      g+1     :     0.000843
      g-1     :     0.000778
      g+2     :     0.000134
      g-2     :     0.000146
      g+3     :     0.000005
      g-3     :     0.000005
      g+4     :     0.000000
      g-4     :     0.000000


                      *****************************
                      * MAYER POPULATION ANALYSIS *
                      *****************************

  NA   - Mulliken gross atomic population
  ZA   - Total nuclear charge
  QA   - Mulliken gross atomic charge
  VA   - Mayer's total valence
  BVA  - Mayer's bonded valence
  FA   - Mayer's free valence

  ATOM       NA         ZA         QA         VA         BVA        FA
  0 C      5.9202     6.0000     0.0798     3.6738     3.6738     0.0000
  1 C      6.1395     6.0000    -0.1395     3.7838     3.7838     0.0000
  2 C      6.1199     6.0000    -0.1199     3.8542     3.8542     0.0000
  3 C      6.1246     6.0000    -0.1246     3.8355     3.8355    -0.0000
  4 C      6.1201     6.0000    -0.1201     3.8556     3.8556    -0.0000
  5 C      6.1494     6.0000    -0.1494     3.7942     3.7942    -0.0000
  6 C      6.2022     6.0000    -0.2022     3.8776     3.8776     0.0000
  7 H      0.9283     1.0000     0.0717     0.9990     0.9990     0.0000
  8 H      0.9139     1.0000     0.0861     0.9818     0.9818    -0.0000
  9 H      0.9093     1.0000     0.0907     0.9789     0.9789    -0.0000
 10 H      0.8984     1.0000     0.1016     0.9867     0.9867     0.0000
 11 H      0.8904     1.0000     0.1096     0.9824     0.9824     0.0000
 12 H      0.8917     1.0000     0.1083     0.9812     0.9812     0.0000
 13 H      0.8901     1.0000     0.1099     0.9824     0.9824     0.0000
 14 H      0.9020     1.0000     0.0980     0.9894     0.9894    -0.0000
 15 N      6.2715     7.0000     0.7285     4.2990     4.2990    -0.0000
 16 O      7.8644     8.0000     0.1356     2.4832     2.4832    -0.0000
 17 O      7.8641     8.0000     0.1359     2.4838     2.4838     0.0000

  Mayer bond orders larger than 0.100000
B(  0-C ,  1-C ) :   1.3235 B(  0-C ,  5-C ) :   1.3505 B(  0-C ,  6-C ) :   0.9584 
B(  1-C ,  2-C ) :   1.4061 B(  1-C , 10-H ) :   0.9837 B(  2-C ,  3-C ) :   1.3712 
B(  2-C , 11-H ) :   0.9813 B(  3-C ,  4-C ) :   1.3936 B(  3-C , 12-H ) :   0.9811 
B(  4-C ,  5-C ) :   1.3831 B(  4-C , 13-H ) :   0.9811 B(  5-C , 14-H ) :   0.9882 
B(  6-C ,  7-H ) :   0.9873 B(  6-C ,  8-H ) :   0.9744 B(  6-C ,  9-H ) :   0.9714 
B( 15-N , 16-O ) :   2.1492 B( 15-N , 17-O ) :   2.1498 B( 16-O , 17-O ) :   0.3340 


-------
TIMINGS
-------

Total SCF time: 0 days 3 hours 20 min 22 sec 

Total time                  ....   12022.747 sec
Sum of individual times     ....   12015.847 sec  ( 99.9%)

Fock matrix formation       ....   12002.278 sec  ( 99.8%)
Diagonalization             ....       2.967 sec  (  0.0%)
Density matrix formation    ....       0.244 sec  (  0.0%)
Population analysis         ....       0.319 sec  (  0.0%)
Initial guess               ....       5.743 sec  (  0.0%)
Orbital Transformation      ....       0.000 sec  (  0.0%)
Orbital Orthonormalization  ....       0.000 sec  (  0.0%)
DIIS solution               ....       1.251 sec  (  0.0%)
SOSCF solution              ....       1.868 sec  (  0.0%)

Maximum memory used throughout the entire SCF-calculation: 858.3 MB


--------------------------------------------------------------------------------
                             ORCA-MATRIX DRIVEN CI
--------------------------------------------------------------------------------

--------------------------------
AUTOMATIC CHOICE OF INCORE LEVEL
--------------------------------

Memory available                           ...    256.00 MB
Memory needed for S+T                      ...   4812.83 MB
Memory needed for J+K                      ...   9629.80 MB
Memory needed for DIIS                     ...  67379.60 MB
Memory needed for 3-ext                    ...  91978.50 MB
Memory needed for 4-ext                    ... 1370833.35 MB
Memory needed for triples                  ...  17688.17 MB
 -> Final InCoreLevel    ... 0
Error (ORCA_MDCI): not enough memory for computing triples
  => Memory needed    :  17688.17 MB
  => Memory available :    256.00 MB
[file orca_mdci/mdci_util.cpp, line 2306]:       ... aborting the job


ORCA finished by error termination in MDCI
Calling Command: orca_mdci first_job.mdciinp.tmp 
Check for MDCI-logfiles
[file orca_main/maingopt.cpp, line 1229]: ORCA finished with an error in the energy calculation

