23
# ORCA AIMD Position Step 0, t=0.00 fs, E_Pot=-756.04636581 Hartree, Unit is Angstrom
Al     -1.6984300076      0.3003900013     -0.5266000024
 O     -1.7543400079      2.2886000102     -0.1676800008
 H     -1.0607400048      2.9665800133     -0.3942600018
 H     -2.5740200115      2.8600400128     -0.1906700009
 O      0.1891400008      0.0113700001     -1.0916200049
 H      0.7475700033      0.5363300024     -1.7212200077
 H      0.8191000037     -0.6828400031     -0.7649500034
 O     -4.1602800186      0.3334000015      0.2120700009
 H     -4.8886300219     -0.2386000011     -0.1391800006
 H     -4.4142200198      0.3696100017      1.1712400052
 O     -1.8995300085     -1.6332000073     -0.9887500044
 H     -1.1891700053     -2.3083000103     -0.8460100038
 H     -2.7211300122     -2.1820000098     -0.8839000040
 O     -2.2771700102      0.4199600019     -2.3904300107
 H     -1.9536900087     -0.2686400012     -3.0230300135
 H     -2.5548900114      1.1841200053     -2.9572200132
 O     -1.2983300058      0.1981200009      1.3293500060
 H     -0.8899900040      0.9723800044      1.7930800080
 H     -1.0686600048     -0.6004800027      1.8689100084
 N     -7.7530700347      0.2176900010      1.5728400070
 H     -7.3624800330     -0.2190000010      2.4077900108
 H     -8.2354600369      1.0779200048      1.8330600082
 H     -8.4134800377     -0.4223400019      1.1316800051
23
# ORCA AIMD Position Step 1, t=1.00 fs, E_Pot=-756.04314045 Hartree, Unit is Angstrom
Al     -1.6954775847      0.2998644315     -0.5251210972
 O     -1.7560453527      2.2983145927     -0.1575750656
 H     -1.0400578627      2.9659884858     -0.3923924359
 H     -2.5477782871      2.8357112421     -0.1730157456
 O      0.1837669122      0.0149981003     -1.0945285066
 H      0.7294858866      0.5530272776     -1.7290580262
 H      0.8272300741     -0.6958628563     -0.7724414966
 O     -4.1566467441      0.3299751173      0.2111287701
 H     -4.9121268033     -0.2305519951     -0.1387648694
 H     -4.4078336938      0.3331697097      1.1628564215
 O     -1.8974447991     -1.6352496469     -0.9936239623
 H     -1.1849043893     -2.3221980714     -0.8402408525
 H     -2.6964425024     -2.1926190228     -0.8799965784
 O     -2.2838312009      0.4190089527     -2.3931563013
 H     -1.9531123192     -0.2724012447     -3.0060495003
 H     -2.5439301186      1.1719571431     -2.9590410174
 O     -1.2977162556      0.1963285065      1.3296452315
 H     -0.8962432141      0.9865371980      1.7658465829
 H     -1.0742643829     -0.5663388812      1.8925163018
 N     -7.7511045210      0.2163272735      1.5707105457
 H     -7.3876982297     -0.2357883595      2.3987736419
 H     -8.2519331275      1.0740315002      1.8346991980
 H     -8.4090534512     -0.4082313885      1.1282946652
23
# ORCA AIMD Position Step 2, t=2.00 fs, E_Pot=-756.03840779 Hartree, Unit is Angstrom
Al     -1.6929470260      0.2993396179     -0.5238055768
 O     -1.7565476060      2.3075862298     -0.1478662113
 H     -1.0214434936      2.9604171702     -0.3887223450
 H     -2.5379960108      2.8174885899     -0.1538573888
 O      0.1787756834      0.0185060795     -1.0973409456
 H      0.7094374591      0.5696001502     -1.7364312267
 H      0.8302731613     -0.7024737489     -0.7810195837
 O     -4.1527162880      0.3260933040      0.2099268886
 H     -4.9320417445     -0.2170029243     -0.1403340316
 H     -4.4001511745      0.2996969788      1.1568819084
 O     -1.8948729275     -1.6376284791     -0.9980055497
 H     -1.1813379090     -2.3322038459     -0.8366632472
 H     -2.6790307911     -2.2023553541     -0.8765152047
 O     -2.2902678004      0.4181804990     -2.3955194980
 H     -1.9532166032     -0.2796155345     -2.9908865681
 H     -2.5360868932      1.1648278816     -2.9623893359
 O     -1.2969947604      0.1947071941      1.3297492108
 H     -0.9036437483      1.0024160226      1.7401328651
 H     -1.0799862806     -0.5385797533      1.9205229052
 N     -7.7486644710      0.2153932562      1.5683364559
 H     -7.4123974541     -0.2552511063      2.3969453831
 H     -8.2679135470      1.0711475942      1.8365707729
 H     -8.4100737028     -0.3992408131      1.1205469160
23
# ORCA AIMD Position Step 3, t=3.00 fs, E_Pot=-756.03939699 Hartree, Unit is Angstrom
Al     -1.6908604682      0.2987989200     -0.5226582089
 O     -1.7549790740      2.3159082637     -0.1385484428
 H     -1.0079851978      2.9496742040     -0.3826061225
 H     -2.5551403613      2.8136495614     -0.1333510509
 O      0.1742668854      0.0218087967     -1.1000347355
 H      0.6875921474      0.5850507277     -1.7426480041
 H      0.8263451761     -0.6998497243     -0.7921229760
 O     -4.1486322709      0.3216290655      0.2082855666
 H     -4.9458703031     -0.1963993378     -0.1437756838
 H     -4.3910403868      0.2694223394      1.1560864069
 O     -1.8915244267     -1.6404005898     -1.0018983454
 H     -1.1795186258     -2.3361011465     -0.8358017865
 H     -2.6722300782     -2.2124536168     -0.8731640404
 O     -2.2964578739      0.4173575624     -2.3972657427
 H     -1.9536277000     -0.2913944715     -2.9788992869
 H     -2.5322649977      1.1654529616     -2.9696728577
 O     -1.2962012928      0.1934737190      1.3295262732
 H     -0.9122584186      1.0200511768      1.7161353059
 H     -1.0851359920     -0.5201024494      1.9550872821
 N     -7.7458794214      0.2150755846      1.5657573205
 H     -7.4363863767     -0.2772110328      2.4029275196
 H     -8.2813385979      1.0669396345      1.8383322837
 H     -8.4169483550     -0.3959832873      1.1073380965
23
# ORCA AIMD Position Step 4, t=4.00 fs, E_Pot=-756.04279227 Hartree, Unit is Angstrom
Al     -1.6892517628      0.2982340891     -0.5216881703
 O     -1.7516128415      2.3232467484     -0.1296307586
 H     -1.0008712837      2.9356306656     -0.3741575024
 H     -2.5936338156      2.8222126992     -0.1116446325
 O      0.1701919010      0.0249533258     -1.1026261198
 H      0.6645959089      0.5987647455     -1.7475120629
 H      0.8160638392     -0.6880452091     -0.8057815795
 O     -4.1444560454      0.3165875530      0.2062376132
 H     -4.9530320205     -0.1687219305     -0.1494869153
 H     -4.3800634018      0.2424685958      1.1605566672
 O     -1.8874512584     -1.6436324698     -1.0052793489
 H     -1.1791646575     -2.3334933645     -0.8377761310
 H     -2.6756291634     -2.2219889822     -0.8701259021
 O     -2.3023721504      0.4165368857     -2.3983817815
 H     -1.9548615759     -0.3068351813     -2.9700721554
 H     -2.5320784290      1.1728676631     -2.9807092981
 O     -1.2952750124      0.1925940461      1.3290923656
 H     -0.9224358023      1.0384204834      1.6938574020
 H     -1.0903104610     -0.5089310347      1.9944632964
 N     -7.7429610381      0.2151860119      1.5630908843
 H     -7.4606748502     -0.2997114310      2.4140414692
 H     -8.2907190350      1.0599738839      1.8398120277
 H     -8.4271239420     -0.3963644040      1.0898450335
23
# ORCA AIMD Position Step 5, t=5.00 fs, E_Pot=-756.04172928 Hartree, Unit is Angstrom
Al     -1.6881540625      0.2976436489     -0.5209039159
 O     -1.7476092367      2.3298584073     -0.1210640278
 H     -0.9988322354      2.9220063755     -0.3643090562
 H     -2.6363668337      2.8345103979     -0.0893033680
 O      0.1663333619      0.0281299782     -1.1051736168
 H      0.6414637888      0.6106665857     -1.7513944617
 H      0.8026227677     -0.6701295951     -0.8206995598
 O     -4.1401412969      0.3110693117      0.2040143035
 H     -4.9550210291     -0.1352886875     -0.1582814242
 H     -4.3666121636      0.2189058919      1.1677383935
 O     -1.8830056342     -1.6473708450     -1.0081220953
 H     -1.1786830614     -2.3259369505     -0.8422201528
 H     -2.6854918580     -2.2282810683     -0.8680223924
 O     -2.3079892311      0.4158146413     -2.3990713634
 H     -1.9581508969     -0.3233619198     -2.9632716924
 H     -2.5341199365      1.1828835769     -2.9929563312
 O     -1.2941033578      0.1918655977      1.3287578844
 H     -0.9346163664      1.0559030468      1.6732456867
 H     -1.0968749761     -0.4999171042      2.0337579598
 N     -7.7401421694      0.2152750023      1.5604751374
 H     -7.4866275415     -0.3198589794      2.4257616950
 H     -8.2955547200      1.0501779641      1.8411064868
 H     -8.4364166615     -0.3968777516      1.0706382050
23
# ORCA AIMD Position Step 6, t=6.00 fs, E_Pot=-756.03732782 Hartree, Unit is Angstrom
Al     -1.6875912479      0.2970252658     -0.5203085533
 O     -1.7441428882      2.3358931581     -0.1127077403
 H     -0.9986538403      2.9134084389     -0.3544924342
 H     -2.6678788253      2.8431328713     -0.0671391015
 O      0.1623170513      0.0316640621     -1.1077815674
 H      0.6192773596      0.6211948938     -1.7551123567
 H      0.7912613853     -0.6515498923     -0.8346467810
 O     -4.1355092759      0.3052018799      0.2019267472
 H     -4.9549645416     -0.0980509093     -0.1712128946
 H     -4.3502629924      0.1986486005      1.1739166721
 O     -1.8786563861     -1.6515907845     -1.0104290529
 H     -1.1755761471     -2.3164793218     -0.8484014180
 H     -2.6969042206     -2.2284986068     -0.8675644894
 O     -2.3133147869      0.4153082364     -2.3996057421
 H     -1.9648835388     -0.3380043753     -2.9570457438
 H     -2.5367924618      1.1905131067     -3.0032091647
 O     -1.2925889436      0.1910814278      1.3288486688
 H     -0.9491563602      1.0710218655      1.6542898862
 H     -1.1060661831     -0.4879707559      2.0677445441
 N     -7.7375897250      0.2148440940      1.5580049132
 H     -7.5151925063     -0.3351527202      2.4338589510
 H     -8.2963706018      1.0387833363      1.8425459700
 H     -8.4409833094     -0.3943398692      1.0522004180
23
# ORCA AIMD Position Step 7, t=7.00 fs, E_Pot=-756.03544595 Hartree, Unit is Angstrom
Al     -1.6875850732      0.2963706730     -0.5199025984
 O     -1.7419728398      2.3413349949     -0.1043992892
 H     -0.9970289541      2.9137934927     -0.3460003953
 H     -2.6793010272      2.8443327034     -0.0458757519
 O      0.1577319551      0.0359084287     -1.1105608130
 H      0.5989853526      0.6310179858     -1.7596327490
 H      0.7875612927     -0.6381099050     -0.8453124310
 O     -4.1302981165      0.2990895371      0.2002310335
 H     -4.9563806205     -0.0587153035     -0.1891287943
 H     -4.3311270522      0.1814202413      1.1758803111
 O     -1.8748077919     -1.6561766807     -1.0122282787
 H     -1.1673783476     -2.3085874357     -0.8555154067
 H     -2.7057643981     -2.2209783754     -0.8692226843
 O     -2.3183698793      0.4150996309     -2.4001783830
 H     -1.9760737212     -0.3485740779     -2.9504024889
 H     -2.5389751196      1.1921020006     -3.0091192278
 O     -1.2906873578      0.1901227068      1.3295739675
 H     -0.9661792716      1.0829582625      1.6371758746
 H     -1.1185126251     -0.4700252454      2.0928643902
 N     -7.7353702403      0.2135054941      1.5557130017
 H     -7.5465203203     -0.3442903667      2.4357511006
 H     -8.2943738334      1.0279183655      1.8445530824
 H     -8.4384974078     -0.3868917843      1.0359877993
23
# ORCA AIMD Position Step 8, t=8.00 fs, E_Pot=-756.03892428 Hartree, Unit is Angstrom
Al     -1.6881545463      0.2956666076     -0.5196876904
 O     -1.7413248699      2.3461236377     -0.0960695172
 H     -0.9930974515      2.9246064737     -0.3392204622
 H     -2.6678469771      2.8374229256     -0.0260336017
 O      0.1523643220      0.0410232442     -1.1135464732
 H      0.5813287927      0.6406293455     -1.7656996928
 H      0.7943420868     -0.6325441190     -0.8516254970
 O     -4.1242926720      0.2928035980      0.1990141890
 H     -4.9614052362     -0.0181555532     -0.2118679230
 H     -4.3101046570      0.1667716987      1.1721642160
 O     -1.8716599874     -1.6609532028     -1.0135478019
 H     -1.1531527547     -2.3046649307     -0.8630319529
 H     -2.7098914561     -2.2058904591     -0.8730399511
 O     -2.3231617209      0.4152164790     -2.4008274809
 H     -1.9920164807     -0.3542910948     -2.9432400482
 H     -2.5402956773      1.1863540319     -3.0099332888
 O     -1.2884224973      0.1889852167      1.3309652436
 H     -0.9854487104      1.0917124412      1.6223915795
 H     -1.1341190760     -0.4456817401      2.1080058536
 N     -7.7334676209      0.2110892644      1.5535909079
 H     -7.5798301211     -0.3474595702      2.4310252193
 H     -8.2908998448      1.0199169011      1.8473898550
 H     -8.4285850700     -0.3743385714      1.0221095063
23
# ORCA AIMD Position Step 9, t=9.00 fs, E_Pot=-756.04373229 Hartree, Unit is Angstrom
Al     -1.6893135544      0.2948956347     -0.5196647351
 O     -1.7418648585      2.3502141650     -0.0878002238
 H     -0.9892803886      2.9441015969     -0.3333838582
 H     -2.6364715021      2.8243508381     -0.0078315299
 O      0.1463595587      0.0468398951     -1.1166564210
 H      0.5667313194      0.6500357413     -1.7735132046
 H      0.8095594947     -0.6324492935     -0.8545001626
 O     -4.1174464450      0.2863890798      0.1981262943
 H     -4.9693221337      0.0237456520     -0.2375132606
 H     -4.2888799339      0.1540755816      1.1635529115
 O     -1.8691208531     -1.6657274457     -1.0144037097
 H     -1.1346261841     -2.3050313812     -0.8709013422
 H     -2.7095012984     -2.1853932297     -0.8785512967
 O     -2.3276685728      0.4156278112     -2.4014188331
 H     -2.0121497218     -0.3560353402     -2.9364356823
 H     -2.5411690494      1.1746638570     -3.0067417080
 O     -1.2858827796      0.1877786584      1.3328533798
 H     -1.0063462605      1.0980843507      1.6106720102
 H     -1.1521288043     -0.4172326998      2.1148588330
 N     -7.7318072020      0.2077195941      1.5516162756
 H     -7.6135560589     -0.3464333605      2.4215840450
 H     -8.2868533745      1.0165007085      1.8508809416
 H     -8.4129412992     -0.3581704125      1.0092476439
23
# ORCA AIMD Position Step 10, t=10.00 fs, E_Pot=-756.04369495 Hartree, Unit is Angstrom
Al     -1.6910655639      0.2940348043     -0.5198306521
 O     -1.7427219285      2.3535176085     -0.0797588675
 H     -0.9897688025      2.9684007928     -0.3270121992
 H     -2.5948848501      2.8101262800      0.0092454946
 O      0.1401089207      0.0530064200     -1.1197652892
 H      0.5550921234      0.6587232349     -1.7826296472
 H      0.8276750937     -0.6320066651     -0.8561325204
 O     -4.1098482550      0.2798647967      0.1971906659
 H     -4.9769169358      0.0676977047     -0.2627411715
 H     -4.2695227162      0.1424613600      1.1529990818
 O     -1.8668064787     -1.6703252085     -1.0148156927
 H     -1.1157595466     -2.3081430732     -0.8794760931
 H     -2.7072442603     -2.1632186864     -0.8848731828
 O     -2.3318670750      0.4162430559     -2.4016783131
 H     -2.0353209367     -0.3561260248     -2.9315313544
 H     -2.5426961411      1.1608260592     -3.0023185966
 O     -1.2831856952      0.1867134526      1.3348871394
 H     -1.0281351541      1.1034147113      1.6026995087
 H     -1.1714313389     -0.3891268864      2.1180220339
 N     -7.7302690422      0.2038024150      1.5497695749
 H     -7.6459772089     -0.3443017094      2.4111989747
 H     -8.2822769798      1.0180399683      1.8542617298
 H     -8.3949322212     -0.3411157978      0.9947543153
23
# ORCA AIMD Position Step 11, t=11.00 fs, E_Pot=-756.03950352 Hartree, Unit is Angstrom
Al     -1.6934118358      0.2930568935     -0.5201790399
 O     -1.7426428902      2.3557817861     -0.0721333249
 H     -0.9980321323      2.9934701126     -0.3187392145
 H     -2.5594998743      2.8029040724      0.0268176326
 O      0.1340147629      0.0592274798     -1.1227969722
 H      0.5458339561      0.6658937720     -1.7921776894
 H      0.8429869260     -0.6256044755     -0.8585775396
 O     -4.1016049959      0.2732423891      0.1957375813
 H     -4.9802913266      0.1142888582     -0.2839710585
 H     -4.2539998022      0.1309611194      1.1444337011
 O     -1.8642014593     -1.6745884012     -1.0148152727
 H     -1.1009825504     -2.3119431648     -0.8891815682
 H     -2.7071736595     -2.1435968556     -0.8909852844
 O     -2.3357433894      0.4169353821     -2.4012840946
 H     -2.0603250160     -0.3574157463     -2.9301174767
 H     -2.5463070699      1.1497421499     -3.0002002708
 O     -1.2804305101      0.1860483167      1.3366337634
 H     -1.0502344917      1.1090376853      1.5988899639
 H     -1.1910416933     -0.3665598372      2.1237165047
 N     -7.7287192300      0.1998773078      1.5480555202
 H     -7.6758533179     -0.3445601405      2.4041485929
 H     -8.2764059368      1.0235485248      1.8563061316
 H     -8.3784225703     -0.3261285406      0.9754111367
23
# ORCA AIMD Position Step 12, t=12.00 fs, E_Pot=-756.03965051 Hartree, Unit is Angstrom
Al     -1.6963553749      0.2919359188     -0.5207021867
 O     -1.7405041977      2.3566930398     -0.0650801044
 H     -1.0152498081      3.0164935241     -0.3078988577
 H     -2.5469216501      2.8107582703      0.0471615109
 O      0.1283539650      0.0653700092     -1.1257509132
 H      0.5381386615      0.6708146099     -1.8012250983
 H      0.8517135915     -0.6099488718     -0.8629242076
 O     -4.0927611249      0.2665412234      0.1934005009
 H     -4.9766025809      0.1635335185     -0.2984458826
 H     -4.2437908200      0.1188357611      1.1407686848
 O     -1.8609071565     -1.6783848628     -1.0144345699
 H     -1.0935257406     -2.3151155971     -0.9002237368
 H     -2.7125319731     -2.1297881555     -0.8961285980
 O     -2.3392931308      0.4175995163     -2.4000161485
 H     -2.0864187356     -0.3619604897     -2.9330662907
 H     -2.5531235895      1.1451969313     -3.0029924242
 O     -1.2776637711      0.1859784839      1.3377781962
 H     -1.0723258243      1.1157068526      1.5993128447
 H     -1.2105506935     -0.3531715851      2.1366815468
 N     -7.7270749983      0.1963823150      1.5465182377
 H     -7.7027380429     -0.3497716189      2.4032012857
 H     -8.2681480241      1.0312845551      1.8556675978
 H     -8.3660556779     -0.3150302329      0.9489490022
23
# ORCA AIMD Position Step 13, t=13.00 fs, E_Pot=-756.04559417 Hartree, Unit is Angstrom
Al     -1.6998845574      0.2906589513     -0.5213892444
 O     -1.7362322216      2.3562969391     -0.0586395679
 H     -1.0398166267      3.0363777536     -0.2948029406
 H     -2.5600499202      2.8340856798      0.0711692267
 O      0.1232607848      0.0714312791     -1.1286712743
 H      0.5312255834      0.6731426184     -1.8091150975
 H      0.8526208435     -0.5846601754     -0.8690678714
 O     -4.0833162289      0.2598079791      0.1900898814
 H     -4.9650278435      0.2146644086     -0.3048249801
 H     -4.2396603065      0.1059474283      1.1420982197
 O     -1.8568729878     -1.6816234182     -1.0136915900
 H     -1.0945034714     -2.3176942555     -0.9124276925
 H     -2.7233553162     -2.1229077607     -0.9001082398
 O     -2.3425174521      0.4182138980     -2.3979058331
 H     -2.1134548358     -0.3698931809     -2.9399122635
 H     -2.5632711157      1.1477394428     -3.0106546502
 O     -1.2748883469      0.1865231286      1.3383241135
 H     -1.0942256786      1.1232468894      1.6036718120
 H     -1.2301262224     -0.3490587616      2.1567967761
 N     -7.7253781701      0.1934683188      1.5452333526
 H     -7.7267840824     -0.3604388466      2.4079795675
 H     -8.2566789728      1.0394643128      1.8512730435
 H     -8.3579140888     -0.3075451434      0.9157296194
23
# ORCA AIMD Position Step 14, t=14.00 fs, E_Pot=-756.04892163 Hartree, Unit is Angstrom
Al     -1.7039654764      0.2892289278     -0.5222228356
 O     -1.7309382559      2.3551105070     -0.0526667518
 H     -1.0677778231      3.0538754529     -0.2806590444
 H     -2.5855173384      2.8637792203      0.0971511876
 O      0.1186988121      0.0775183272     -1.1316279037
 H      0.5245108025      0.6731763628     -1.8157605159
 H      0.8473103885     -0.5523183978     -0.8756942016
 O     -4.0732274065      0.2530921929      0.1860331608
 H     -4.9470694998      0.2664787475     -0.3035153350
 H     -4.2415124086      0.0928212255      1.1454464053
 O     -1.8524473611     -1.6842552459     -1.0125918616
 H     -1.1025676776     -2.3211703571     -0.9252821984
 H     -2.7360004902     -2.1218024300     -0.9032894896
 O     -2.3454414250      0.4188463482     -2.3952560542
 H     -2.1417069603     -0.3793216501     -2.9488299292
 H     -2.5757332601      1.1544508760     -3.0202768885
 O     -1.2720960860      0.1875319280      1.3386028553
 H     -1.1158011967      1.1306088292      1.6113154651
 H     -1.2500823194     -0.3509591771      2.1788841371
 N     -7.7237875158      0.1909630936      1.5442617995
 H     -7.7484176558     -0.3749023820      2.4150103410
 H     -8.2418280032      1.0468600096      1.8426436677
 H     -8.3515959809     -0.3014821597      0.8790538329
23
# ORCA AIMD Position Step 15, t=15.00 fs, E_Pot=-756.04702751 Hartree, Unit is Angstrom
Al     -1.7085655908      0.2876541133     -0.5231840750
 O     -1.7259461345      2.3536830994     -0.0469116194
 H     -1.0943083220      3.0710858806     -0.2670584719
 H     -2.6074107262      2.8889886529      0.1225008209
 O      0.1144265202      0.0838588548     -1.1347197315
 H      0.5176503607      0.6718868187     -1.8217945263
 H      0.8401289048     -0.5178622183     -0.8804513074
 O     -4.0623621065      0.2463904813      0.1816335318
 H     -4.9261020377      0.3181485980     -0.2965478406
 H     -4.2485225473      0.0802692147      1.1465139147
 O     -1.8481864838     -1.6862485851     -1.0111346131
 H     -1.1144385421     -2.3280909978     -0.9381966660
 H     -2.7452927029     -2.1241593179     -0.9062787655
 O     -2.3481279312      0.4195959042     -2.3924850065
 H     -2.1716020168     -0.3873986106     -2.9573579913
 H     -2.5889675294      1.1609583254     -3.0277261340
 O     -1.2692877265      0.1888103202      1.3390610459
 H     -1.1369907630      1.1363750659      1.6214033588
 H     -1.2705163759     -0.3545910582      2.1961473764
 N     -7.7224742700      0.1884974244      1.5436038073
 H     -7.7681409321     -0.3904378153      2.4196054842
 H     -8.2240877598      1.0532036011      1.8299726355
 H     -8.3437441260     -0.2940257785      0.8435141665
23
# ORCA AIMD Position Step 16, t=16.00 fs, E_Pot=-756.04499438 Hartree, Unit is Angstrom
Al     -1.7136614039      0.2859418070     -0.5242534408
 O     -1.7221397216      2.3523581787     -0.0411559008
 H     -1.1154619874      3.0899714506     -0.2553532895
 H     -2.6158339542      2.9023742675      0.1452650149
 O      0.1100745688      0.0907318812     -1.1380534823
 H      0.5105194615      0.6706427394     -1.8283827971
 H      0.8368988073     -0.4870798633     -0.8804838201
 O     -4.0505418584      0.2396495907      0.1772802379
 H     -4.9061156104      0.3695744859     -0.2867757391
 H     -4.2594795817      0.0689672448      1.1418338206
 O     -1.8445953371     -1.6875727850     -1.0093168664
 H     -1.1263910181     -2.3409879737     -0.9507458028
 H     -2.7471462187     -2.1278265828     -0.9095649683
 O     -2.3506574448      0.4205355885     -2.3899478624
 H     -2.2033545366     -0.3916957944     -2.9633119773
 H     -2.6016343667      1.1637478325     -3.0295557224
 O     -1.2664835230      0.1902197892      1.3400466566
 H     -1.1577078336      1.1393365409      1.6331127027
 H     -1.2912241466     -0.3567673845      2.2034163467
 N     -7.7215301181      0.1856891072      1.5431921031
 H     -7.7863788407     -0.4045162938      2.4179062496
 H     -8.2044060806      1.0591630441      1.8139945987
 H     -8.3316560998     -0.2830308476      0.8131265273
23
# ORCA AIMD Position Step 17, t=17.00 fs, E_Pot=-756.04754467 Hartree, Unit is Angstrom
Al     -1.7192288165      0.2840988502     -0.5254082350
 O     -1.7198719894      2.3513571776     -0.0352883878
 H     -1.1294540824      3.1106009029     -0.2461796397
 H     -2.6071524909      2.9004672938      0.1644655643
 O      0.1053568119      0.0983073607     -1.1416876771
 H      0.5031258323      0.6707381432     -1.8367659399
 H      0.8418896025     -0.4639266116     -0.8735970659
 O     -4.0376711881      0.2328144122      0.1732012454
 H     -4.8898279752      0.4211150896     -0.2766853110
 H     -4.2730824910      0.0591744136      1.1300882377
 O     -1.8419242343     -1.6882449408     -1.0071362110
 H     -1.1361253180     -2.3608015617     -0.9628050494
 H     -2.7400732500     -2.1315325296     -0.9133370164
 O     -2.3530998288      0.4216928642     -2.3878378939
 H     -2.2367597242     -0.3911206210     -2.9654023315
 H     -2.6130098205      1.1613795284     -3.0240482347
 O     -1.2637216898      0.1917009331      1.3417107982
 H     -1.1777341151      1.1389313127      1.6457820734
 H     -1.3118298930     -0.3562324390      2.1985053168
 N     -7.7209337789      0.1822814895      1.5429106490
 H     -7.8034618014     -0.4155712676      2.4080492592
 H     -8.1838820956      1.0659293733      1.7957866803
 H     -8.3141161563     -0.2676652166      0.7902274129
23
# ORCA AIMD Position Step 18, t=18.00 fs, E_Pot=-756.05322647 Hartree, Unit is Angstrom
Al     -1.7252248163      0.2821346184     -0.5266207551
 O     -1.7190407988      2.3508586731     -0.0293295692
 H     -1.1367697848      3.1305275687     -0.2393909921
 H     -2.5827693650      2.8830589459      0.1800658961
 O      0.1002947451      0.1065032685     -1.1455736499
 H      0.4954684219      0.6728543479     -1.8476648830
 H      0.8545926757     -0.4481319955     -0.8595921227
 O     -4.0238646373      0.2258975725      0.1693942652
 H     -4.8770894145      0.4728296691     -0.2674633419
 H     -4.2881547937      0.0506009086      1.1124734479
 O     -1.8400811292     -1.6883818736     -1.0046007309
 H     -1.1438094556     -2.3857511282     -0.9744926603
 H     -2.7256486595     -2.1351013787     -0.9174476080
 O     -2.3554902706      0.4230483876     -2.3861553216
 H     -2.2711848675     -0.3863000741     -2.9635169988
 H     -2.6231429823      1.1548444005     -3.0115695791
 O     -1.2610486505      0.1932650775      1.3439779315
 H     -1.1966808039      1.1354972792      1.6589969070
 H     -1.3319795366     -0.3538404732      2.1825648610
 N     -7.7205591413      0.1782376243      1.5426240175
 H     -7.8197067387     -0.4233607779      2.3906254250
 H     -8.1634127445      1.0745446194      1.7765624356
 H     -8.2916361050     -0.2485717099      0.7749639169
23
# ORCA AIMD Position Step 19, t=19.00 fs, E_Pot=-756.05620280 Hartree, Unit is Angstrom
Al     -1.7315953356      0.2800599269     -0.5278590761
 O     -1.7191373920      2.3509159150     -0.0234182137
 H     -1.1392355844      3.1459094520     -0.2343654717
 H     -2.5492594128      2.8534166475      0.1932805779
 O      0.0952153890      0.1150416722     -1.1495732732
 H      0.4874141489      0.6767795197     -1.8609165568
 H      0.8697865291     -0.4356081510     -0.8404717244
 O     -4.0094221438      0.2190071314      0.1656483796
 H     -4.8647786122      0.5239301141     -0.2589124966
 H     -4.3038397204      0.0424186037      1.0921801894
 O     -1.8386863628     -1.6881792247     -1.0017362998
 H     -1.1514239652     -2.4117930530     -0.9859873646
 H     -2.7082086230     -2.1394139799     -0.9214814633
 O     -2.3578184053      0.4245395694     -2.3847108363
 H     -2.3058247394     -0.3794561416     -2.9587011656
 H     -2.6329058095      1.1473919904     -2.9944653403
 O     -1.2584963638      0.1949967015      1.3465533839
 H     -1.2140870525      1.1301865982      1.6726480896
 H     -1.3516102760     -0.3524745586      2.1599426496
 N     -7.7201942973      0.1737850892      1.5422091198
 H     -7.8355844631     -0.4291072468      2.3686376441
 H     -8.1433516170      1.0851982835      1.7574353700
 H     -8.2663339346     -0.2277050880      0.7650471801
23
# ORCA AIMD Position Step 20, t=20.00 fs, E_Pot=-756.05380372 Hartree, Unit is Angstrom
Al     -1.7382918414      0.2778813453     -0.5290930609
 O     -1.7192849921      2.3513113020     -0.0177933749
 H     -1.1388046203      3.1534140994     -0.2304288915
 H     -2.5188736872      2.8186418877      0.2070394852
 O      0.0905207885      0.1236497656     -1.1535435917
 H      0.4786589595      0.6815243181     -1.8755158844
 H      0.8810114872     -0.4213312028     -0.8192213998
 O     -3.9946757888      0.2123100422      0.1616717690
 H     -4.8485973835      0.5729512223     -0.2503270890
 H     -4.3196096801      0.0334821635      1.0730402707
 O     -1.8372721433     -1.6878342747     -0.9985790766
 H     -1.1609998226     -2.4344307203     -0.9973825799
 H     -2.6933264475     -2.1458719526     -0.9249321391
 O     -2.3600364601      0.4260782373     -2.3831959232
 H     -2.3400398743     -0.3736635183     -2.9527195922
 H     -2.6437723839      1.1435686372     -2.9762515153
 O     -1.2560623490      0.1970362703      1.3490105592
 H     -1.2295583742      1.1245695776      1.6869297180
 H     -1.3711311184     -0.3563198060      2.1369300845
 N     -7.7195758380      0.1693643135      1.5415798344
 H     -7.8518246345     -0.4351840945      2.3467218219
 H     -8.1234474813      1.0969818316      1.7392965274
 H     -8.2413441916     -0.2077891390      0.7561665391
23
# ORCA AIMD Position Step 21, t=21.00 fs, E_Pot=-756.05151054 Hartree, Unit is Angstrom
Al     -1.7452784679      0.2756045093     -0.5302951670
 O     -1.7184163694      2.3515676527     -0.0127615954
 H     -1.1369662164      3.1514038693     -0.2271054966
 H     -2.5073228795      2.7882029356      0.2257591342
 O      0.0864927128      0.1321772508     -1.1573913332
 H      0.4688744423      0.6858006018     -1.8901161740
 H      0.8835638162     -0.4016043507     -0.7985024724
 O     -3.9798798922      0.2059699209      0.1572491167