
                                 *****************
                                 * O   R   C   A *
                                 *****************

                                            #,                                       
                                            ###                                      
                                            ####                                     
                                            #####                                    
                                            ######                                   
                                           ########,                                 
                                     ,,################,,,,,                         
                               ,,#################################,,                 
                          ,,##########################################,,             
                       ,#########################################, ''#####,          
                    ,#############################################,,   '####,        
                  ,##################################################,,,,####,       
                ,###########''''           ''''###############################       
              ,#####''   ,,,,##########,,,,          '''####'''          '####       
            ,##' ,,,,###########################,,,                        '##       
           ' ,,###''''                  '''############,,,                           
         ,,##''                                '''############,,,,        ,,,,,,###''
      ,#''                                            '''#######################'''  
     '                                                          ''''####''''         
             ,#######,   #######,   ,#######,      ##                                
            ,#'     '#,  ##    ##  ,#'     '#,    #''#        ######   ,####,        
            ##       ##  ##   ,#'  ##            #'  '#       #        #'  '#        
            ##       ##  #######   ##           ,######,      #####,   #    #        
            '#,     ,#'  ##    ##  '#,     ,#' ,#      #,         ##   #,  ,#        
             '#######'   ##     ##  '#######'  #'      '#     #####' # '####'        



                  #######################################################
                  #                        -***-                        #
                  #          Department of theory and spectroscopy      #
                  #    Directorship and core code : Frank Neese         #
                  #        Max Planck Institute fuer Kohlenforschung    #
                  #                Kaiser Wilhelm Platz 1               #
                  #                 D-45470 Muelheim/Ruhr               #
                  #                      Germany                        #
                  #                                                     #
                  #                  All rights reserved                #
                  #                        -***-                        #
                  #######################################################



                         Program Version 5.0.4 -  RELEASE  -

 With contributions from (in alphabetic order):
   Daniel Aravena         : Magnetic Suceptibility
   Michael Atanasov       : Ab Initio Ligand Field Theory (pilot matlab implementation)
   Alexander A. Auer      : GIAO ZORA, VPT2 properties, NMR spectrum
   Ute Becker             : Parallelization
   Giovanni Bistoni       : ED, misc. LED, open-shell LED, HFLD
   Martin Brehm           : Molecular dynamics
   Dmytro Bykov           : SCF Hessian
   Vijay G. Chilkuri      : MRCI spin determinant printing, contributions to CSF-ICE
   Dipayan Datta          : RHF DLPNO-CCSD density
   Achintya Kumar Dutta   : EOM-CC, STEOM-CC
   Dmitry Ganyushin       : Spin-Orbit,Spin-Spin,Magnetic field MRCI
   Miquel Garcia          : C-PCM and meta-GGA Hessian, CC/C-PCM, Gaussian charge scheme
   Yang Guo               : DLPNO-NEVPT2, F12-NEVPT2, CIM, IAO-localization
   Andreas Hansen         : Spin unrestricted coupled pair/coupled cluster methods
   Benjamin Helmich-Paris : MC-RPA, TRAH-SCF, COSX integrals
   Lee Huntington         : MR-EOM, pCC
   Robert Izsak           : Overlap fitted RIJCOSX, COSX-SCS-MP3, EOM
   Marcus Kettner         : VPT2
   Christian Kollmar      : KDIIS, OOCD, Brueckner-CCSD(T), CCSD density, CASPT2, CASPT2-K
   Simone Kossmann        : Meta GGA functionals, TD-DFT gradient, OOMP2, MP2 Hessian
   Martin Krupicka        : Initial AUTO-CI
   Lucas Lang             : DCDCAS
   Marvin Lechner         : AUTO-CI (C++ implementation), FIC-MRCC
   Dagmar Lenk            : GEPOL surface, SMD
   Dimitrios Liakos       : Extrapolation schemes; Compound Job, initial MDCI parallelization
   Dimitrios Manganas     : Further ROCIS development; embedding schemes
   Dimitrios Pantazis     : SARC Basis sets
   Anastasios Papadopoulos: AUTO-CI, single reference methods and gradients
   Taras Petrenko         : DFT Hessian,TD-DFT gradient, ASA, ECA, R-Raman, ABS, FL, XAS/XES, NRVS
   Peter Pinski           : DLPNO-MP2, DLPNO-MP2 Gradient
   Christoph Reimann      : Effective Core Potentials
   Marius Retegan         : Local ZFS, SOC
   Christoph Riplinger    : Optimizer, TS searches, QM/MM, DLPNO-CCSD(T), (RO)-DLPNO pert. Triples
   Tobias Risthaus        : Range-separated hybrids, TD-DFT gradient, RPA, STAB
   Michael Roemelt        : Original ROCIS implementation
   Masaaki Saitow         : Open-shell DLPNO-CCSD energy and density
   Barbara Sandhoefer     : DKH picture change effects
   Avijit Sen             : IP-ROCIS
   Kantharuban Sivalingam : CASSCF convergence, NEVPT2, FIC-MRCI
   Bernardo de Souza      : ESD, SOC TD-DFT
   Georgi Stoychev        : AutoAux, RI-MP2 NMR, DLPNO-MP2 response
   Willem Van den Heuvel  : Paramagnetic NMR
   Boris Wezisla          : Elementary symmetry handling
   Frank Wennmohs         : Technical directorship


 We gratefully acknowledge several colleagues who have allowed us to
 interface, adapt or use parts of their codes:
   Stefan Grimme, W. Hujo, H. Kruse, P. Pracht,  : VdW corrections, initial TS optimization,
                  C. Bannwarth, S. Ehlert          DFT functionals, gCP, sTDA/sTD-DF
   Ed Valeev, F. Pavosevic, A. Kumar             : LibInt (2-el integral package), F12 methods
   Garnet Chan, S. Sharma, J. Yang, R. Olivares  : DMRG
   Ulf Ekstrom                                   : XCFun DFT Library
   Mihaly Kallay                                 : mrcc  (arbitrary order and MRCC methods)
   Jiri Pittner, Ondrej Demel                    : Mk-CCSD
   Frank Weinhold                                : gennbo (NPA and NBO analysis)
   Christopher J. Cramer and Donald G. Truhlar   : smd solvation model
   Lars Goerigk                                  : TD-DFT with DH, B97 family of functionals
   V. Asgeirsson, H. Jonsson                     : NEB implementation
   FAccTs GmbH                                   : IRC, NEB, NEB-TS, DLPNO-Multilevel, CI-OPT
                                                   MM, QMMM, 2- and 3-layer-ONIOM, Crystal-QMMM,
                                                   LR-CPCM, SF, NACMEs, symmetry and pop. for TD-DFT,
                                                   nearIR, NL-DFT gradient (VV10), updates on ESD,
                                                   ML-optimized integration grids
   S Lehtola, MJT Oliveira, MAL Marques          : LibXC Library
   Liviu Ungur et al                             : ANISO software


 Your calculation uses the libint2 library for the computation of 2-el integrals
 For citations please refer to: http://libint.valeyev.net

 Your ORCA version has been built with support for libXC version: 5.1.0
 For citations please refer to: https://tddft.org/programs/libxc/

 This ORCA versions uses:
   CBLAS   interface :  Fast vector & matrix operations
   LAPACKE interface :  Fast linear algebra routines
   Shared memory     :  Shared parallel matrices


================================================================================

----- Orbital basis set information -----
Your calculation utilizes the basis: cc-pVTZ 
       H, B-Ne : Obtained from the ccRepo (grant-hill.group.shef.ac.uk/ccrepo) Feb. 2017
                 T. H. Dunning, Jr., J. Chem. Phys. 90, 1007 (1989)
            He : Obtained from the ccRepo (grant-hill.group.shef.ac.uk/ccrepo) Feb. 2017
                 D. E. Woon, T. H. Dunning, Jr., J. Chem. Phys. 100, 2975 (1994)
  Li-Be, Na-Mg : Obtained from the ccRepo (grant-hill.group.shef.ac.uk/ccrepo) Feb. 2017
                 B. P. Prascher, D. E. Woon, K. A. Peterson, T. H. Dunning, Jr., A. K. Wilson, Theor. Chem. Acc. 128, 69 (2011)
         Al-Ar : Obtained from the ccRepo (grant-hill.group.shef.ac.uk/ccrepo) Feb. 2017
                 D. E. Woon, T. H. Dunning, Jr., J. Chem. Phys. 98, 1358 (1993)
            Ca : Obtained from the Peterson Research Group Website (tyr0.chem.wsu.edu/~kipeters) Feb. 2017
                 J. Koput, K. A. Peterson, J. Phys. Chem. 106, 9595 (2002)
         Sc-Zn : Obtained from the ccRepo (grant-hill.group.shef.ac.uk/ccrepo) Feb. 2017
                 N. B. Balabanov, K. A. Peterson, J. Chem. Phys. 123, 064107 (2005)
                 N. B. Balabanov, K. A. Peterson, J. Chem. Phys. 125, 074110 (2006)
         Ga-Kr : Obtained from the ccRepo (grant-hill.group.shef.ac.uk/ccrepo) Feb. 2017
                 A. K. Wilson, D. E. Woon, K. A. Peterson, T. H. Dunning, Jr., J. Chem. Phys. 110, 7667 (1999)
             Y : Obtained from the ccRepo (grant-hill.group.shef.ac.uk/ccrepo) Feb. 2017
                 K. A. Peterson, D. Figgen, M. Dolg, H. Stoll, J. Chem. Phys. 126, 124101 (2007)
        Ag, Au : Obtained from the Peterson Research Group Website (tyr0.chem.wsu.edu/~kipeters) Feb. 2017
                 K. A. Peterson, C. Puzzarini, Theor. Chem. Acc. 114, 283 (2005)

================================================================================
                                        WARNINGS
                       Please study these warnings very carefully!
================================================================================


INFO   : the flag for use of the SHARK integral package has been found!

================================================================================
                                       INPUT FILE
================================================================================
NAME = RHF.inp
|  1> !RHF cc-pVTZ
|  2> 
|  3> * xyz 0 1
|  4>   C   -1.05354596271083      1.42135243576665     -0.73549220185663
|  5>   C   -1.76717691585433      0.81968690597605      0.22444324622836
|  6>   C   -0.91604797271676     -0.21504620254596      0.92339098529051
|  7>   C   -3.18658916550982      1.06760146729181      0.62043996179919
|  8>   H   -3.65177058285626      1.84890976029203      0.00161745831760
|  9>   H   -3.25259686050292      1.37975261146372      1.67787971117939
| 10>   H   -3.79133874736600      0.14808169577577      0.52701048897989
| 11>   C   0.35705795446457      0.89749440001034     -0.79501799653405
| 12>   C   1.41588701773226      2.02006837281249     -0.63884945754235
| 13>   C   2.80881703463114      1.41251132710473     -0.63583732910559
| 14>   H   1.20967085252781      2.57392305919014      0.29049098629325
| 15>   H   1.34740263144453      2.70902449090648     -1.49554455642121
| 16>   C   3.37622781232091      1.19049215945855      0.75754145591531
| 17>   N   0.41123761481178     -0.07210345422347      0.31381604773552
| 18>   H   0.56307393880421      0.40954505459904     -1.76931562713006
| 19>   H   -1.34153580290440     -1.23063666814028      0.78694765203342
| 20>   H   -0.89469173408622     -0.03961126720342      2.01833030977159
| 21>   H   0.80199521648994     -0.96262165511348      0.02364954504097
| 22>   O   3.36130687691708      1.06897825383177     -1.65256833709520
| 23>   Cl  4.92950915132907      0.31373216343513      0.77168111918747
| 24>   H   2.62051255229742      0.61607693324621      1.31840686987001
| 25>   H   3.50773757250952      2.16097047317234      1.26235402519175
| 26>   H   -1.41589248177270      2.21265768289335     -1.39571435714913
| 27> *
| 28> 
| 29>                          ****END OF INPUT****
================================================================================

                       ****************************
                       * Single Point Calculation *
                       ****************************

---------------------------------
CARTESIAN COORDINATES (ANGSTROEM)
---------------------------------
  C     -1.053546    1.421352   -0.735492
  C     -1.767177    0.819687    0.224443
  C     -0.916048   -0.215046    0.923391
  C     -3.186589    1.067601    0.620440
  H     -3.651771    1.848910    0.001617
  H     -3.252597    1.379753    1.677880
  H     -3.791339    0.148082    0.527010
  C      0.357058    0.897494   -0.795018
  C      1.415887    2.020068   -0.638849
  C      2.808817    1.412511   -0.635837
  H      1.209671    2.573923    0.290491
  H      1.347403    2.709024   -1.495545
  C      3.376228    1.190492    0.757541
  N      0.411238   -0.072103    0.313816
  H      0.563074    0.409545   -1.769316
  H     -1.341536   -1.230637    0.786948
  H     -0.894692   -0.039611    2.018330
  H      0.801995   -0.962622    0.023650
  O      3.361307    1.068978   -1.652568
  Cl     4.929509    0.313732    0.771681
  H      2.620513    0.616077    1.318407
  H      3.507738    2.160970    1.262354
  H     -1.415892    2.212658   -1.395714

----------------------------
CARTESIAN COORDINATES (A.U.)
----------------------------
  NO LB      ZA    FRAG     MASS         X           Y           Z
   0 C     6.0000    0    12.011   -1.990913    2.685967   -1.389879
   1 C     6.0000    0    12.011   -3.339480    1.548984    0.424136
   2 C     6.0000    0    12.011   -1.731080   -0.406378    1.744956
   3 C     6.0000    0    12.011   -6.021781    2.017474    1.172462
   4 H     1.0000    0     1.008   -6.900846    3.493933    0.003057
   5 H     1.0000    0     1.008   -6.146517    2.607355    3.170733
   6 H     1.0000    0     1.008   -7.164592    0.279834    0.995905
   7 C     6.0000    0    12.011    0.674742    1.696019   -1.502366
   8 C     6.0000    0    12.011    2.675639    3.817376   -1.207251
   9 C     6.0000    0    12.011    5.307895    2.669260   -1.201558
  10 H     1.0000    0     1.008    2.285947    4.864010    0.548948
  11 H     1.0000    0     1.008    2.546222    5.119314   -2.826170
  12 C     6.0000    0    12.011    6.380146    2.249704    1.431546
  13 N     7.0000    0    14.007    0.777126   -0.136256    0.593026
  14 H     1.0000    0     1.008    1.064056    0.773928   -3.343522
  15 H     1.0000    0     1.008   -2.535135   -2.325566    1.487116
  16 H     1.0000    0     1.008   -1.690722   -0.074854    3.814092
  17 H     1.0000    0     1.008    1.515551   -1.819091    0.044691
  18 O     8.0000    0    15.999    6.351949    2.020076   -3.122902
  19 Cl   17.0000    0    35.453    9.315422    0.592868    1.458266
  20 H     1.0000    0     1.008    4.952051    1.164217    2.491428
  21 H     1.0000    0     1.008    6.628663    4.083642    2.385503
  22 H     1.0000    0     1.008   -2.675649    4.181317   -2.637518

--------------------------------
INTERNAL COORDINATES (ANGSTROEM)
--------------------------------
 C      0   0   0     0.000000000000     0.00000000     0.00000000
 C      1   0   0     1.338934879489     0.00000000     0.00000000
 C      2   1   0     1.511165452774   109.82196906     0.00000000
 C      2   1   3     1.494324651114   128.44062839   179.78269870
 H      4   2   1     1.099898945618   111.74548719     0.56287256
 H      4   2   1     1.104524411761   110.93787333   239.70122251
 H      4   2   1     1.104521495198   111.07206626   121.48725273
 C      1   2   3     1.505913003134   111.79412486   359.04900444
 C      8   1   2     1.551025442152   112.56335804   236.40577598
 C      9   8   1     1.519667288812   109.66823387   177.07142628
 H      9   8   1     1.101341809323   108.73027453    54.57694854
 H      9   8   1     1.101488600153   109.38669597   295.31290613
 C     10   9   8     1.520773467676   113.71409416   262.94198134
 N      3   2   1     1.467549407909   104.51207102     3.94388319
 H      8   1   2     1.108960334041   111.21128859   117.28720759
 H      3   2   1     1.109540747622   110.72492162   242.40782782
 H      3   2   1     1.109110287466   111.04803639   125.08450044
 H     14   3   2     1.014845194437   112.42873142   228.76442572
 O     10   9   8     1.207063354124   122.11734072    78.62710422
 Cl    13  10   9     1.783701471327   113.82421088   173.56777860
 H     13  10   9     1.102555404008   106.64293304    52.48876903
 H     13  10   9     1.101797941781   109.61716057   295.91096255
 H      1   2   3     1.092406649717   125.59235336   180.27335036

---------------------------
INTERNAL COORDINATES (A.U.)
---------------------------
 C      0   0   0     0.000000000000     0.00000000     0.00000000
 C      1   0   0     2.530220233389     0.00000000     0.00000000
 C      2   1   0     2.855688848786   109.82196906     0.00000000
 C      2   1   3     2.823864345773   128.44062839   179.78269870
 H      4   2   1     2.078507782206   111.74548719     0.56287256
 H      4   2   1     2.087248646458   110.93787333   239.70122251
 H      4   2   1     2.087243134954   111.07206626   121.48725273
 C      1   2   3     2.845763157435   111.79412486   359.04900444
 C      8   1   2     2.931013312412   112.56335804   236.40577598
 C      9   8   1     2.871754990533   109.66823387   177.07142628
 H      9   8   1     2.081234399458   108.73027453    54.57694854
 H      9   8   1     2.081511793926   109.38669597   295.31290613
 C     10   9   8     2.873845365641   113.71409416   262.94198134
 N      3   2   1     2.773266468946   104.51207102     3.94388319
 H      8   1   2     2.095631324719   111.21128859   117.28720759
 H      3   2   1     2.096728147432   110.72492162   242.40782782
 H      3   2   1     2.095914695625   111.04803639   125.08450044
 H     14   3   2     1.917779485812   112.42873142   228.76442572
 O     10   9   8     2.281019165587   122.11734072    78.62710422
 Cl    13  10   9     3.370707285481   113.82421088   173.56777860
 H     13  10   9     2.083527761050   106.64293304    52.48876903
 H     13  10   9     2.082096364884   109.61716057   295.91096255
 H      1   2   3     2.064349394839   125.59235336   180.27335036

---------------------
BASIS SET INFORMATION
---------------------
There are 5 groups of distinct atoms

 Group   1 Type C   : 18s5p2d1f contracted to 4s3p2d1f pattern {8811/311/11/1}
 Group   2 Type H   : 5s2p1d contracted to 3s2p1d pattern {311/11/1}
 Group   3 Type N   : 18s5p2d1f contracted to 4s3p2d1f pattern {8811/311/11/1}
 Group   4 Type O   : 18s5p2d1f contracted to 4s3p2d1f pattern {8811/311/11/1}
 Group   5 Type Cl  : 41s16p2d1f contracted to 5s4p2d1f pattern {13131311/7711/11/1}

Atom   0C    basis set group =>   1
Atom   1C    basis set group =>   1
Atom   2C    basis set group =>   1
Atom   3C    basis set group =>   1
Atom   4H    basis set group =>   2
Atom   5H    basis set group =>   2
Atom   6H    basis set group =>   2
Atom   7C    basis set group =>   1
Atom   8C    basis set group =>   1
Atom   9C    basis set group =>   1
Atom  10H    basis set group =>   2
Atom  11H    basis set group =>   2
Atom  12C    basis set group =>   1
Atom  13N    basis set group =>   3
Atom  14H    basis set group =>   2
Atom  15H    basis set group =>   2
Atom  16H    basis set group =>   2
Atom  17H    basis set group =>   2
Atom  18O    basis set group =>   4
Atom  19Cl   basis set group =>   5
Atom  20H    basis set group =>   2
Atom  21H    basis set group =>   2
Atom  22H    basis set group =>   2
------------------------------------------------------------------------------
                           ORCA GTO INTEGRAL CALCULATION
------------------------------------------------------------------------------
------------------------------------------------------------------------------
                   ___                                                        
                  /   \      - P O W E R E D   B Y -                         
                 /     \                                                     
                 |  |  |   _    _      __       _____    __    __             
                 |  |  |  | |  | |    /  \     |  _  \  |  |  /  |          
                  \  \/   | |  | |   /    \    | | | |  |  | /  /          
                 / \  \   | |__| |  /  /\  \   | |_| |  |  |/  /          
                |  |  |   |  __  | /  /__\  \  |    /   |      \           
                |  |  |   | |  | | |   __   |  |    \   |  |\   \          
                \     /   | |  | | |  |  |  |  | |\  \  |  | \   \       
                 \___/    |_|  |_| |__|  |__|  |_| \__\ |__|  \__/        
                                                                              
                      - O R C A' S   B I G   F R I E N D -                    
                                      &                                       
                       - I N T E G R A L  F E E D E R -                       
                                                                              
 v1 FN, 2020, v2 2021                                                         
------------------------------------------------------------------------------


Reading SHARK input file RHF.SHARKINP.tmp ... ok
----------------------
SHARK INTEGRAL PACKAGE
----------------------

Number of atoms                             ...     23
Number of basis functions                   ...    587
Number of shells                            ...    259
Maximum angular momentum                    ...      3
Integral batch strategy                     ... SHARK/LIBINT Hybrid
RI-J (if used) integral strategy            ... SPLIT-RIJ (Revised 2003 algorithm where possible)
Printlevel                                  ...      1
Contraction scheme used                     ... PARTIAL GENERAL contraction
Coulomb Range Separation                    ... NOT USED
Exchange Range Separation                   ... NOT USED
Finite Nucleus Model                        ... NOT USED
Auxiliary Coulomb fitting basis             ... NOT available
Auxiliary J/K fitting basis                 ... NOT available
Auxiliary Correlation fitting basis         ... NOT available
Auxiliary 'external' fitting basis          ... NOT available
Integral threshold                          ...     1.000000e-10
Primitive cut-off                           ...     1.000000e-11
Primitive pair pre-selection threshold      ...     1.000000e-11

Calculating pre-screening integrals         ... done (  0.1 sec) Dimension = 259
Calculating pre-screening integrals (ORCA)  ... done (  1.4 sec) Dimension = 184
Organizing shell pair data                  ... done (  0.9 sec)
Shell pair information
Total number of shell pairs                 ...     33670
Shell pairs after pre-screening             ...     21588
Total number of primitive shell pairs       ...     46122
Primitive shell pairs kept                  ...     26638
          la=0 lb=0:   6255 shell pairs
          la=1 lb=0:   6354 shell pairs
          la=1 lb=1:   1537 shell pairs
          la=2 lb=0:   3379 shell pairs
          la=2 lb=1:   1632 shell pairs
          la=2 lb=2:    455 shell pairs
          la=3 lb=0:   1105 shell pairs
          la=3 lb=1:    525 shell pairs
          la=3 lb=2:    291 shell pairs
          la=3 lb=3:     55 shell pairs

Calculating one electron integrals          ... done (  0.3 sec)
Calculating Nuclear repulsion               ... done (  0.0 sec) ENN=    682.250720776388 Eh

SHARK setup successfully completed in   3.3 seconds

Maximum memory used throughout the entire GTOINT-calculation: 192.7 MB
-------------------------------------------------------------------------------
                                 ORCA SCF
-------------------------------------------------------------------------------

------------
SCF SETTINGS
------------
Hamiltonian:
 Ab initio Hamiltonian  Method          .... Hartree-Fock(GTOs)


General Settings:
 Integral files         IntName         .... RHF
 Hartree-Fock type      HFTyp           .... RHF
 Total Charge           Charge          ....    0
 Multiplicity           Mult            ....    1
 Number of Electrons    NEL             ....   92
 Basis Dimension        Dim             ....  502
 Nuclear Repulsion      ENuc            ....    682.2507207764 Eh

Convergence Acceleration:
 DIIS                   CNVDIIS         .... on
   Start iteration      DIISMaxIt       ....    12
   Startup error        DIISStart       ....  0.200000
   # of expansion vecs  DIISMaxEq       ....     5
   Bias factor          DIISBfac        ....   1.050
   Max. coefficient     DIISMaxC        ....  10.000
 Trust-Rad. Augm. Hess. CNVTRAH         .... auto
   Auto Start mean grad. ratio tolernc. ....  1.125000
   Auto Start start iteration           ....    20
   Auto Start num. interpolation iter.  ....    10
   Max. Number of Micro iterations      ....    16
   Max. Number of Macro iterations      .... Maxiter - #DIIS iter
   Number of Davidson start vectors     ....     2
   Converg. threshold I  (grad. norm)   ....   5.000e-05
   Converg. threshold II (energy diff.) ....   1.000e-06
   Grad. Scal. Fac. for Micro threshold ....   0.100
   Minimum threshold for Micro iter.    ....   0.010
   NR start threshold (gradient norm)   ....   0.001
   Initial trust radius                 ....   0.400
   Minimum AH scaling param. (alpha)    ....   1.000
   Maximum AH scaling param. (alpha)    .... 1000.000
   Orbital update algorithm             .... Taylor
   White noise on init. David. guess    .... on
   Maximum white noise                  ....   0.010
   Quad. conv. algorithm                .... NR
 SOSCF                  CNVSOSCF        .... on
   Start iteration      SOSCFMaxIt      ....   150
   Startup grad/error   SOSCFStart      ....  0.003300
 Level Shifting         CNVShift        .... on
   Level shift para.    LevelShift      ....    0.2500
   Turn off err/grad.   ShiftErr        ....    0.0010
 Zerner damping         CNVZerner       .... off
 Static damping         CNVDamp         .... on
   Fraction old density DampFac         ....    0.7000
   Max. Damping (<1)    DampMax         ....    0.9800
   Min. Damping (>=0)   DampMin         ....    0.0000
   Turn off err/grad.   DampErr         ....    0.1000
 Fernandez-Rico         CNVRico         .... off

SCF Procedure:
 Maximum # iterations   MaxIter         ....   125
 SCF integral mode      SCFMode         .... Direct
   Integral package                     .... SHARK and LIBINT hybrid scheme
 Reset frequency        DirectResetFreq ....    20
 Integral Threshold     Thresh          ....  1.000e-10 Eh
 Primitive CutOff       TCut            ....  1.000e-11 Eh

Convergence Tolerance:
 Convergence Check Mode ConvCheckMode   .... Total+1el-Energy
 Convergence forced     ConvForced      .... 0
 Energy Change          TolE            ....  1.000e-06 Eh
 1-El. energy change                    ....  1.000e-03 Eh
 Orbital Gradient       TolG            ....  5.000e-05
 Orbital Rotation angle TolX            ....  5.000e-05
 DIIS Error             TolErr          ....  1.000e-06


Diagonalization of the overlap matrix:
Smallest eigenvalue                        ... 1.066e-04
Time for diagonalization                   ...    0.102 sec
Threshold for overlap eigenvalues          ... 1.000e-08
Number of eigenvalues below threshold      ... 0
Time for construction of square roots      ...    0.052 sec
Total time needed                          ...    0.155 sec

Time for model grid setup =    1.823 sec

------------------------------
INITIAL GUESS: MODEL POTENTIAL
------------------------------
Loading Hartree-Fock densities                     ... done
Calculating cut-offs                               ... done
Initializing the effective Hamiltonian             ... done
Setting up the integral package (SHARK)            ... done
Starting the Coulomb interaction                   ... done (   3.5 sec)
Reading the grid                                   ... done
Mapping shells                                     ... done
Starting the XC term evaluation                    ... done (   1.2 sec)
Transforming the Hamiltonian                       ... done (   0.0 sec)
Diagonalizing the Hamiltonian                      ... done (   0.1 sec)
Back transforming the eigenvectors                 ... done (   0.0 sec)
Now organizing SCF variables                       ... done
                      ------------------
                      INITIAL GUESS DONE (   6.7 sec)
                      ------------------
--------------
SCF ITERATIONS
--------------
ITER       Energy         Delta-E        Max-DP      RMS-DP      [F,P]     Damp
               ***  Starting incremental Fock matrix formation  ***
  0   -898.4026465180   0.000000000000 0.04747537  0.00054801  0.3082596 0.7000
  1   -898.5685064747  -0.165859956676 0.03423399  0.00043752  0.1871689 0.7000
                               ***Turning on DIIS***
  2   -898.6701292197  -0.101622745051 0.02423077  0.00027858  0.1093687 0.7000
  3   -899.9030851281  -1.232955908357 0.05794331  0.00055439  0.0824263 0.0000
  4   -898.8402358471   1.062849280997 0.02007482  0.00015339  0.0079502 0.0000
                      *** Initiating the SOSCF procedure ***
                           *** Shutting down DIIS ***
                      *** Re-Reading the Fockian *** 
                      *** Removing any level shift *** 
ITER      Energy       Delta-E        Grad      Rot      Max-DP    RMS-DP
  5   -898.89582698  -0.0555911301  0.001626  0.001626  0.008814  0.000082
               *** Restarting incremental Fock matrix formation ***
  6   -898.88717237   0.0086546084  0.001330  0.002134  0.004186  0.000046
  7   -898.88723129  -0.0000589185  0.000277  0.001296  0.004043  0.000041
  8   -898.88724784  -0.0000165487  0.000192  0.000195  0.000756  0.000010
  9   -898.88724991  -0.0000020692  0.000056  0.000142  0.000179  0.000003
                 **** Energy Check signals convergence ****
              ***Rediagonalizing the Fockian in SOSCF/NRSCF***

               *****************************************************
               *                     SUCCESS                       *
               *           SCF CONVERGED AFTER  10 CYCLES          *
               *****************************************************


----------------
TOTAL SCF ENERGY
----------------

Total Energy       :         -898.88725018 Eh          -24459.96560 eV

Components:
Nuclear Repulsion  :          682.25072078 Eh           18564.98594 eV
Electronic Energy  :        -1581.13797096 Eh          -43024.95154 eV
One Electron Energy:        -2587.47139936 Eh          -70408.67628 eV
Two Electron Energy:         1006.33342840 Eh           27383.72475 eV

Virial components:
Potential Energy   :        -1796.93862032 Eh          -48897.18574 eV
Kinetic Energy     :          898.05137014 Eh           24437.22015 eV
Virial Ratio       :            2.00093077


---------------
SCF CONVERGENCE
---------------

  Last Energy change         ...   -2.7760e-07  Tolerance :   1.0000e-06
  Last MAX-Density change    ...    8.2290e-05  Tolerance :   1.0000e-05
  Last RMS-Density change    ...    1.0454e-06  Tolerance :   1.0000e-06
  Last Orbital Gradient      ...    1.5524e-05  Tolerance :   5.0000e-05
  Last Orbital Rotation      ...    8.8690e-05  Tolerance :   5.0000e-05

             **** THE GBW FILE WAS UPDATED (RHF.gbw) ****
             **** DENSITY RHF.scfp WAS UPDATED ****
             **** ENERGY FILE WAS UPDATED (RHF.en.tmp) ****
             **** THE GBW FILE WAS UPDATED (RHF.gbw) ****
             **** DENSITY RHF.scfp WAS UPDATED ****
----------------
ORBITAL ENERGIES
----------------

  NO   OCC          E(Eh)            E(eV) 
   0   2.0000    -104.819422     -2852.2815 
   1   2.0000     -20.550671      -559.2122 
   2   2.0000     -15.555707      -423.2923 
   3   2.0000     -11.337721      -308.5151 
   4   2.0000     -11.298263      -307.4414 
   5   2.0000     -11.280194      -306.9497 
   6   2.0000     -11.268897      -306.6423 
   7   2.0000     -11.249204      -306.1064 
   8   2.0000     -11.243189      -305.9427 
   9   2.0000     -11.240509      -305.8698 
  10   2.0000     -11.232751      -305.6587 
  11   2.0000     -10.544318      -286.9255 
  12   2.0000      -8.011160      -217.9947 
  13   2.0000      -8.009294      -217.9440 
  14   2.0000      -8.009280      -217.9436 
  15   2.0000      -1.394861       -37.9561 
  16   2.0000      -1.241742       -33.7895 
  17   2.0000      -1.129549       -30.7366 
  18   2.0000      -1.077604       -29.3231 
  19   2.0000      -1.057965       -28.7887 
  20   2.0000      -0.981991       -26.7213 
  21   2.0000      -0.941638       -25.6233 
  22   2.0000      -0.914716       -24.8907 
  23   2.0000      -0.808206       -21.9924 
  24   2.0000      -0.745907       -20.2972 
  25   2.0000      -0.732052       -19.9201 
  26   2.0000      -0.702696       -19.1213 
  27   2.0000      -0.662254       -18.0209 
  28   2.0000      -0.652123       -17.7452 
  29   2.0000      -0.630879       -17.1671 
  30   2.0000      -0.622520       -16.9396 
  31   2.0000      -0.597151       -16.2493 
  32   2.0000      -0.591690       -16.1007 
  33   2.0000      -0.573689       -15.6109 
  34   2.0000      -0.552544       -15.0355 
  35   2.0000      -0.549699       -14.9581 
  36   2.0000      -0.542562       -14.7639 
  37   2.0000      -0.519338       -14.1319 
  38   2.0000      -0.514042       -13.9878 
  39   2.0000      -0.503199       -13.6927 
  40   2.0000      -0.486905       -13.2494 
  41   2.0000      -0.441989       -12.0271 
  42   2.0000      -0.431712       -11.7475 
  43   2.0000      -0.411983       -11.2106 
  44   2.0000      -0.393292       -10.7020 
  45   2.0000      -0.345104        -9.3908 
  46   0.0000       0.122637         3.3371 
  47   0.0000       0.136148         3.7048 
  48   0.0000       0.139284         3.7901 
  49   0.0000       0.146339         3.9821 
  50   0.0000       0.156897         4.2694 
  51   0.0000       0.165106         4.4928 
  52   0.0000       0.181831         4.9479 
  53   0.0000       0.190540         5.1849 
  54   0.0000       0.201861         5.4929 
  55   0.0000       0.207105         5.6356 
  56   0.0000       0.214178         5.8281 
  57   0.0000       0.218047         5.9334 
  58   0.0000       0.224473         6.1082 
  59   0.0000       0.234710         6.3868 
  60   0.0000       0.261061         7.1038 
  61   0.0000       0.278561         7.5800 
  62   0.0000       0.298863         8.1325 
  63   0.0000       0.309372         8.4184 
  64   0.0000       0.318119         8.6565 
  65   0.0000       0.330782         9.0010 
  66   0.0000       0.345533         9.4024 
  67   0.0000       0.354071         9.6348 
  68   0.0000       0.363834         9.9004 
  69   0.0000       0.376435        10.2433 
  70   0.0000       0.385584        10.4923 
  71   0.0000       0.428349        11.6560 
  72   0.0000       0.429992        11.7007 
  73   0.0000       0.445709        12.1284 
  74   0.0000       0.446576        12.1520 
  75   0.0000       0.455324        12.3900 
  76   0.0000       0.470136        12.7930 
  77   0.0000       0.485163        13.2020 
  78   0.0000       0.489271        13.3137 
  79   0.0000       0.493710        13.4345 
  80   0.0000       0.509188        13.8557 
  81   0.0000       0.527500        14.3540 
  82   0.0000       0.536272        14.5927 
  83   0.0000       0.540669        14.7124 
  84   0.0000       0.546352        14.8670 
  85   0.0000       0.555917        15.1273 
  86   0.0000       0.563371        15.3301 
  87   0.0000       0.572903        15.5895 
  88   0.0000       0.578555        15.7433 
  89   0.0000       0.583386        15.8748 
  90   0.0000       0.589938        16.0530 
  91   0.0000       0.597147        16.2492 
  92   0.0000       0.603003        16.4085 
  93   0.0000       0.613449        16.6928 
  94   0.0000       0.619717        16.8633 
  95   0.0000       0.624395        16.9906 
  96   0.0000       0.629321        17.1247 
  97   0.0000       0.634883        17.2760 
  98   0.0000       0.642476        17.4827 
  99   0.0000       0.650570        17.7029 
 100   0.0000       0.656028        17.8514 
 101   0.0000       0.661017        17.9872 
 102   0.0000       0.671976        18.2854 
 103   0.0000       0.675538        18.3823 
 104   0.0000       0.694181        18.8896 
 105   0.0000       0.696911        18.9639 
 106   0.0000       0.703209        19.1353 
 107   0.0000       0.707772        19.2594 
 108   0.0000       0.727492        19.7961 
 109   0.0000       0.728066        19.8117 
 110   0.0000       0.741737        20.1837 
 111   0.0000       0.747314        20.3354 
 112   0.0000       0.758237        20.6327 
 113   0.0000       0.763829        20.7848 
 114   0.0000       0.780298        21.2330 
 115   0.0000       0.802454        21.8359 
 116   0.0000       0.809774        22.0351 
 117   0.0000       0.829819        22.5805 
 118   0.0000       0.843058        22.9408 
 119   0.0000       0.863127        23.4869 
 120   0.0000       0.871320        23.7098 
 121   0.0000       0.886585        24.1252 
 122   0.0000       0.914261        24.8783 
 123   0.0000       0.921573        25.0773 
 124   0.0000       0.929321        25.2881 
 125   0.0000       0.947450        25.7814 
 126   0.0000       0.956862        26.0375 
 127   0.0000       0.975989        26.5580 
 128   0.0000       0.986228        26.8366 
 129   0.0000       1.000069        27.2133 
 130   0.0000       1.004699        27.3392 
 131   0.0000       1.019245        27.7351 
 132   0.0000       1.022157        27.8143 
 133   0.0000       1.031793        28.0765 
 134   0.0000       1.048176        28.5223 
 135   0.0000       1.072808        29.1926 
 136   0.0000       1.081193        29.4208 
 137   0.0000       1.097660        29.8689 
 138   0.0000       1.123672        30.5767 
 139   0.0000       1.130490        30.7622 
 140   0.0000       1.145313        31.1655 
 141   0.0000       1.150676        31.3115 
 142   0.0000       1.157906        31.5082 
 143   0.0000       1.175454        31.9857 
 144   0.0000       1.185435        32.2573 
 145   0.0000       1.195224        32.5237 
 146   0.0000       1.208075        32.8734 
 147   0.0000       1.214721        33.0542 
 148   0.0000       1.235218        33.6120 
 149   0.0000       1.238625        33.7047 
 150   0.0000       1.243605        33.8402 
 151   0.0000       1.251860        34.0648 
 152   0.0000       1.271369        34.5957 
 153   0.0000       1.280028        34.8313 
 154   0.0000       1.289656        35.0933 
 155   0.0000       1.305394        35.5216 
 156   0.0000       1.313915        35.7535 
 157   0.0000       1.321816        35.9684 
 158   0.0000       1.342185        36.5227 
 159   0.0000       1.350661        36.7533 
 160   0.0000       1.368483        37.2383 
 161   0.0000       1.374217        37.3943 
 162   0.0000       1.388074        37.7714 
 163   0.0000       1.397194        38.0196 
 164   0.0000       1.400555        38.1110 
 165   0.0000       1.411716        38.4147 
 166   0.0000       1.414550        38.4919 
 167   0.0000       1.427608        38.8472 
 168   0.0000       1.439441        39.1692 
 169   0.0000       1.465014        39.8651 
 170   0.0000       1.471811        40.0500 
 171   0.0000       1.474695        40.1285 
 172   0.0000       1.478823        40.2408 
 173   0.0000       1.496627        40.7253 
 174   0.0000       1.511134        41.1200 
 175   0.0000       1.516964        41.2787 
 176   0.0000       1.525602        41.5138 
 177   0.0000       1.536837        41.8195 
 178   0.0000       1.552491        42.2454 
 179   0.0000       1.556277        42.3485 
 180   0.0000       1.565373        42.5960 
 181   0.0000       1.572659        42.7942 
 182   0.0000       1.577160        42.9167 
 183   0.0000       1.591298        43.3014 
 184   0.0000       1.601266        43.5727 
 185   0.0000       1.619950        44.0811 
 186   0.0000       1.630316        44.3632 
 187   0.0000       1.638546        44.5871 
 188   0.0000       1.642981        44.7078 
 189   0.0000       1.661770        45.2191 
 190   0.0000       1.681352        45.7519 
 191   0.0000       1.702104        46.3166 
 192   0.0000       1.710069        46.5333 
 193   0.0000       1.719508        46.7902 
 194   0.0000       1.728883        47.0453 
 195   0.0000       1.736675        47.2573 
 196   0.0000       1.784893        48.5694 
 197   0.0000       1.811529        49.2942 
 198   0.0000       1.821377        49.5622 
 199   0.0000       1.831431        49.8358 
 200   0.0000       1.853536        50.4373 
 201   0.0000       1.873888        50.9911 
 202   0.0000       1.907062        51.8938 
 203   0.0000       1.927700        52.4554 
 204   0.0000       1.979324        53.8601 
 205   0.0000       1.982075        53.9350 
 206   0.0000       1.995850        54.3098 
 207   0.0000       2.044126        55.6235 
 208   0.0000       2.081911        56.6517 
 209   0.0000       2.112876        57.4943 
 210   0.0000       2.151573        58.5473 
 211   0.0000       2.160559        58.7918 
 212   0.0000       2.210524        60.1514 
 213   0.0000       2.230672        60.6997 
 214   0.0000       2.261342        61.5342 
 215   0.0000       2.276194        61.9384 
 216   0.0000       2.289638        62.3042 
 217   0.0000       2.294962        62.4491 
 218   0.0000       2.311941        62.9111 
 219   0.0000       2.355337        64.0920 
 220   0.0000       2.363954        64.3265 
 221   0.0000       2.370740        64.5111 
 222   0.0000       2.404163        65.4206 
 223   0.0000       2.429402        66.1074 
 224   0.0000       2.430088        66.1261 
 225   0.0000       2.434507        66.2463 
 226   0.0000       2.444762        66.5254 
 227   0.0000       2.506249        68.1985 
 228   0.0000       2.547019        69.3079 
 229   0.0000       2.562562        69.7308 
 230   0.0000       2.567261        69.8587 
 231   0.0000       2.570966        69.9595 
 232   0.0000       2.593518        70.5732 
 233   0.0000       2.610086        71.0240 
 234   0.0000       2.624192        71.4079 
 235   0.0000       2.636095        71.7318 
 236   0.0000       2.645371        71.9842 
 237   0.0000       2.652578        72.1803 
 238   0.0000       2.678918        72.8971 
 239   0.0000       2.686021        73.0904 
 240   0.0000       2.691755        73.2464 
 241   0.0000       2.704267        73.5868 
 242   0.0000       2.710614        73.7596 
 243   0.0000       2.727511        74.2193 
 244   0.0000       2.750025        74.8320 
 245   0.0000       2.776102        75.5416 
 246   0.0000       2.778552        75.6082 
 247   0.0000       2.790600        75.9361 
 248   0.0000       2.820375        76.7463 
 249   0.0000       2.835163        77.1487 
 250   0.0000       2.861610        77.8684 
 251   0.0000       2.878457        78.3268 
 252   0.0000       2.897125        78.8348 
 253   0.0000       2.912698        79.2585 
 254   0.0000       2.919377        79.4403 
 255   0.0000       2.931908        79.7813 
 256   0.0000       2.945750        80.1579 
 257   0.0000       2.963003        80.6274 
 258   0.0000       2.977902        81.0328 
 259   0.0000       3.000367        81.6441 
 260   0.0000       3.004518        81.7571 
 261   0.0000       3.012611        81.9773 
 262   0.0000       3.024705        82.3064 
 263   0.0000       3.038955        82.6942 
 264   0.0000       3.048595        82.9565 
 265   0.0000       3.061270        83.3014 
 266   0.0000       3.067559        83.4725 
 267   0.0000       3.088793        84.0503 
 268   0.0000       3.099241        84.3346 
 269   0.0000       3.103995        84.4640 
 270   0.0000       3.108903        84.5976 
 271   0.0000       3.133983        85.2800 
 272   0.0000       3.139565        85.4319 
 273   0.0000       3.159693        85.9796 
 274   0.0000       3.173092        86.3442 
 275   0.0000       3.184499        86.6546 
 276   0.0000       3.198063        87.0237 
 277   0.0000       3.212830        87.4255 
 278   0.0000       3.217613        87.5557 
 279   0.0000       3.239234        88.1440 
 280   0.0000       3.250647        88.4546 
 281   0.0000       3.252015        88.4918 
 282   0.0000       3.274033        89.0910 
 283   0.0000       3.285767        89.4103 
 284   0.0000       3.300807        89.8195 
 285   0.0000       3.306901        89.9854 
 286   0.0000       3.309646        90.0600 
 287   0.0000       3.315469        90.2185 
 288   0.0000       3.336049        90.7785 
 289   0.0000       3.340450        90.8983 
 290   0.0000       3.346455        91.0617 
 291   0.0000       3.356278        91.3290 
 292   0.0000       3.357374        91.3588 
 293   0.0000       3.383960        92.0822 
 294   0.0000       3.395227        92.3888 
 295   0.0000       3.398684        92.4829 
 296   0.0000       3.401343        92.5553 
 297   0.0000       3.416302        92.9623 
 298   0.0000       3.428797        93.3023 
 299   0.0000       3.436740        93.5184 
 300   0.0000       3.444434        93.7278 
 301   0.0000       3.456597        94.0588 
 302   0.0000       3.462027        94.2065 
 303   0.0000       3.482944        94.7757 
 304   0.0000       3.492999        95.0493 
 305   0.0000       3.503897        95.3459 
 306   0.0000       3.506041        95.4042 
 307   0.0000       3.513931        95.6189 
 308   0.0000       3.514832        95.6434 
 309   0.0000       3.538306        96.2822 
 310   0.0000       3.551774        96.6487 
 311   0.0000       3.565431        97.0203 
 312   0.0000       3.580566        97.4321 
 313   0.0000       3.583476        97.5113 
 314   0.0000       3.606840        98.1471 
 315   0.0000       3.626204        98.6740 
 316   0.0000       3.631676        98.8229 
 317   0.0000       3.637983        98.9946 
 318   0.0000       3.645735        99.2055 
 319   0.0000       3.658851        99.5624 
 320   0.0000       3.689268       100.3901 
 321   0.0000       3.706550       100.8604 
 322   0.0000       3.711677       100.9999 
 323   0.0000       3.714343       101.0724 
 324   0.0000       3.732130       101.5564 
 325   0.0000       3.744193       101.8847 
 326   0.0000       3.751164       102.0744 
 327   0.0000       3.759746       102.3079 
 328   0.0000       3.772050       102.6427 
 329   0.0000       3.780517       102.8731 
 330   0.0000       3.793438       103.2247 
 331   0.0000       3.815424       103.8230 
 332   0.0000       3.823505       104.0429 
 333   0.0000       3.832987       104.3009 
 334   0.0000       3.844131       104.6041 
 335   0.0000       3.851228       104.7972 
 336   0.0000       3.857052       104.9557 
 337   0.0000       3.876919       105.4963 
 338   0.0000       3.885268       105.7235 
 339   0.0000       3.897237       106.0492 
 340   0.0000       3.916644       106.5773 
 341   0.0000       3.927818       106.8814 
 342   0.0000       3.935565       107.0922 
 343   0.0000       3.963152       107.8429 
 344   0.0000       3.972230       108.0899 
 345   0.0000       3.992213       108.6336 
 346   0.0000       3.994221       108.6883 
 347   0.0000       4.016054       109.2824 
 348   0.0000       4.044371       110.0529 
 349   0.0000       4.051438       110.2452 
 350   0.0000       4.058191       110.4290 
 351   0.0000       4.076786       110.9350 
 352   0.0000       4.080972       111.0489 
 353   0.0000       4.092924       111.3741 
 354   0.0000       4.105822       111.7251 
 355   0.0000       4.120770       112.1319 
 356   0.0000       4.134122       112.4952 
 357   0.0000       4.143259       112.7438 
 358   0.0000       4.145819       112.8135 
 359   0.0000       4.157996       113.1448 
 360   0.0000       4.167094       113.3924 
 361   0.0000       4.182465       113.8107 
 362   0.0000       4.196836       114.2017 
 363   0.0000       4.204013       114.3970 
 364   0.0000       4.211092       114.5896 
 365   0.0000       4.217469       114.7632 
 366   0.0000       4.237590       115.3107 
 367   0.0000       4.242015       115.4311 
 368   0.0000       4.258291       115.8740 
 369   0.0000       4.265310       116.0650 
 370   0.0000       4.286568       116.6434 
 371   0.0000       4.298137       116.9583 
 372   0.0000       4.306929       117.1975 
 373   0.0000       4.315968       117.4435 
 374   0.0000       4.321561       117.5957 
 375   0.0000       4.335569       117.9768 
 376   0.0000       4.340517       118.1115 
 377   0.0000       4.362377       118.7063 
 378   0.0000       4.369426       118.8981 
 379   0.0000       4.383646       119.2851 
 380   0.0000       4.396340       119.6305 
 381   0.0000       4.409862       119.9984 
 382   0.0000       4.419301       120.2553 
 383   0.0000       4.425622       120.4273 
 384   0.0000       4.437971       120.7633 
 385   0.0000       4.451831       121.1405 
 386   0.0000       4.470054       121.6363 
 387   0.0000       4.478468       121.8653 
 388   0.0000       4.494075       122.2900 
 389   0.0000       4.508059       122.6705 
 390   0.0000       4.525325       123.1403 
 391   0.0000       4.544160       123.6529 
 392   0.0000       4.545818       123.6980 
 393   0.0000       4.557680       124.0208 
 394   0.0000       4.572921       124.4355 
 395   0.0000       4.586614       124.8081 
 396   0.0000       4.615241       125.5871 
 397   0.0000       4.629222       125.9675 
 398   0.0000       4.637095       126.1818 
 399   0.0000       4.662571       126.8750 
 400   0.0000       4.671800       127.1261 
 401   0.0000       4.681674       127.3948 
 402   0.0000       4.713511       128.2612 
 403   0.0000       4.721069       128.4668 
 404   0.0000       4.731740       128.7572 
 405   0.0000       4.750167       129.2586 
 406   0.0000       4.767234       129.7230 
 407   0.0000       4.792941       130.4225 
 408   0.0000       4.815530       131.0372 
 409   0.0000       4.856774       132.1595 
 410   0.0000       4.863395       132.3397 
 411   0.0000       4.884363       132.9103 
 412   0.0000       4.905905       133.4965 
 413   0.0000       4.945114       134.5634 
 414   0.0000       4.959912       134.9661 
 415   0.0000       4.980475       135.5256 
 416   0.0000       4.992657       135.8571 
 417   0.0000       5.011778       136.3774 
 418   0.0000       5.047156       137.3401 
 419   0.0000       5.052975       137.4984 
 420   0.0000       5.073475       138.0563 
 421   0.0000       5.082220       138.2942 
 422   0.0000       5.103906       138.8843 
 423   0.0000       5.117143       139.2445 
 424   0.0000       5.137711       139.8042 
 425   0.0000       5.167194       140.6065 
 426   0.0000       5.171662       140.7281 
 427   0.0000       5.199674       141.4903 
 428   0.0000       5.215888       141.9315 
 429   0.0000       5.235337       142.4608 
 430   0.0000       5.244656       142.7143 
 431   0.0000       5.280533       143.6906 
 432   0.0000       5.294240       144.0636 
 433   0.0000       5.323118       144.8494 
 434   0.0000       5.329455       145.0218 
 435   0.0000       5.353991       145.6895 
 436   0.0000       5.365671       146.0073 
 437   0.0000       5.368580       146.0865 
 438   0.0000       5.391982       146.7233 
 439   0.0000       5.410669       147.2318 
 440   0.0000       5.454393       148.4216 
 441   0.0000       5.461343       148.6107 
 442   0.0000       5.475606       148.9988 
 443   0.0000       5.487285       149.3166 
 444   0.0000       5.520997       150.2340 
 445   0.0000       5.526382       150.3805 
 446   0.0000       5.536195       150.6475 
 447   0.0000       5.554141       151.1359 
 448   0.0000       5.581792       151.8883 
 449   0.0000       5.595893       152.2720 
 450   0.0000       5.613432       152.7493 
 451   0.0000       5.619013       152.9011 
 452   0.0000       5.630297       153.2082 
 453   0.0000       5.639622       153.4619 
 454   0.0000       5.659575       154.0049 
 455   0.0000       5.665034       154.1534 
 456   0.0000       5.673006       154.3703 
 457   0.0000       5.690388       154.8433 
 458   0.0000       5.702330       155.1683 
 459   0.0000       5.753656       156.5649 
 460   0.0000       5.765950       156.8995 
 461   0.0000       5.800237       157.8325 
 462   0.0000       5.835056       158.7800 
 463   0.0000       5.856986       159.3767 
 464   0.0000       5.896844       160.4613 
 465   0.0000       5.981489       162.7646 
 466   0.0000       6.003564       163.3653 
 467   0.0000       6.035809       164.2427 
 468   0.0000       6.083418       165.5382 
 469   0.0000       6.091297       165.7526 
 470   0.0000       6.143982       167.1863 
 471   0.0000       6.165974       167.7847 
 472   0.0000       6.180535       168.1809 
 473   0.0000       6.219078       169.2297 
 474   0.0000       6.231297       169.5622 
 475   0.0000       6.251208       170.1040 
 476   0.0000       6.278628       170.8501 
 477   0.0000       6.321384       172.0136 
 478   0.0000       6.345328       172.6651 
 479   0.0000       6.379462       173.5940 
 480   0.0000       6.435097       175.1079 
 481   0.0000       6.455139       175.6533 
 482   0.0000       6.551477       178.2748 
 483   0.0000       6.749807       183.6716 
 484   0.0000       6.806637       185.2180 
 485   0.0000       6.936410       188.7493 
 486   0.0000       6.997732       190.4180 
 487   0.0000       7.062744       192.1870 
 488   0.0000       7.146490       194.4659 
 489   0.0000       7.378091       200.7681 
 490   0.0000       7.544421       205.2941 
 491   0.0000       7.580867       206.2859 
 492   0.0000       9.608677       261.4654 
 493   0.0000      10.019676       272.6492 
 494   0.0000      12.072082       328.4980 
 495   0.0000      12.589937       342.5896 
 496   0.0000      12.939037       352.0891 
 497   0.0000      13.558075       368.9340 
 498   0.0000      13.636106       371.0573 
 499   0.0000      14.160348       385.3226 
 500   0.0000      14.279671       388.5696 
 501   0.0000      14.601358       397.3231 

                    ********************************
                    * MULLIKEN POPULATION ANALYSIS *
                    ********************************

-----------------------
MULLIKEN ATOMIC CHARGES
-----------------------
   0 C :   -0.285973
   1 C :    0.016643
   2 C :   -0.050239
   3 C :   -0.258345
   4 H :    0.103116
   5 H :    0.096833
   6 H :    0.095797
   7 C :    0.070163
   8 C :   -0.189785
   9 C :    0.272249
  10 H :    0.105629
  11 H :    0.124837
  12 C :   -0.091019
  13 N :   -0.339733
  14 H :    0.125341
  15 H :    0.086371
  16 H :    0.078466
  17 H :    0.146035
  18 O :   -0.347949
  19 Cl:   -0.186870
  20 H :    0.135265
  21 H :    0.128512
  22 H :    0.164657
Sum of atomic charges:    0.0000000

--------------------------------
MULLIKEN REDUCED ORBITAL CHARGES
--------------------------------
  0 C s       :     3.303823  s :     3.303823
      pz      :     0.981506  p :     2.874340
      px      :     0.894666
      py      :     0.998167
      dz2     :     0.022362  d :     0.098251
      dxz     :     0.013991
      dyz     :     0.018656
      dx2y2   :     0.023223
      dxy     :     0.020019
      f0      :     0.001310  f :     0.009559
      f+1     :     0.001317
      f-1     :     0.001015
      f+2     :     0.001634
      f-2     :     0.001593
      f+3     :     0.001292
      f-3     :     0.001398
  1 C s       :     3.162271  s :     3.162271
      pz      :     0.910314  p :     2.686441
      px      :     0.876373
      py      :     0.899754
      dz2     :     0.034184  d :     0.123496
      dxz     :     0.023481
      dyz     :     0.013891
      dx2y2   :     0.023029
      dxy     :     0.028910
      f0      :     0.001390  f :     0.011149
      f+1     :     0.001779
      f-1     :     0.001030
      f+2     :     0.001928
      f-2     :     0.001756
      f+3     :     0.001501
      f-3     :     0.001765
  2 C s       :     3.217857  s :     3.217857
      pz      :     0.969016  p :     2.692951
      px      :     0.773191
      py      :     0.950744
      dz2     :     0.036564  d :     0.130035
      dxz     :     0.026092
      dyz     :     0.007804
      dx2y2   :     0.030691
      dxy     :     0.028884
      f0      :     0.001391  f :     0.009395
      f+1     :     0.001768
      f-1     :     0.000795
      f+2     :     0.001377
      f-2     :     0.001137
      f+3     :     0.001543
      f-3     :     0.001384
  3 C s       :     3.269444  s :     3.269444
      pz      :     1.005470  p :     2.905706
      px      :     0.888363
      py      :     1.011874
      dz2     :     0.019204  d :     0.078423
      dxz     :     0.012240
      dyz     :     0.011000
      dx2y2   :     0.012214
      dxy     :     0.023764
      f0      :     0.000856  f :     0.004772
      f+1     :     0.000582
      f-1     :     0.000660
      f+2     :     0.000458
      f-2     :     0.000327
      f+3     :     0.001212
      f-3     :     0.000678
  4 H s       :     0.866322  s :     0.866322
      pz      :     0.008530  p :     0.028319
      px      :     0.009582
      py      :     0.010206
      dz2     :     0.000494  d :     0.002243
      dxz     :     0.000277
      dyz     :     0.000459
      dx2y2   :     0.000471
      dxy     :     0.000542
  5 H s       :     0.873561  s :     0.873561
      pz      :     0.010980  p :     0.027384
      px      :     0.008326
      py      :     0.008078
      dz2     :     0.000742  d :     0.002222
      dxz     :     0.000740
      dyz     :     0.000585
      dx2y2   :     0.000069
      dxy     :     0.000087
  6 H s       :     0.874698  s :     0.874698
      pz      :     0.007955  p :     0.027291
      px      :     0.010128
      py      :     0.009208
      dz2     :     0.000255  d :     0.002214
      dxz     :     0.000168
      dyz     :     0.000430
      dx2y2   :     0.000738
      dxy     :     0.000623
  7 C s       :     3.140000  s :     3.140000
      pz      :     0.884343  p :     2.604499
      px      :     0.861552
      py      :     0.858605
      dz2     :     0.042643  d :     0.174003
      dxz     :     0.024533
      dyz     :     0.041701
      dx2y2   :     0.029014
      dxy     :     0.036113
      f0      :     0.001318  f :     0.011334
      f+1     :     0.001275
      f-1     :     0.002339
      f+2     :     0.001263
      f-2     :     0.001591
      f+3     :     0.001711
      f-3     :     0.001838
  8 C s       :     3.188876  s :     3.188876
      pz      :     1.050416  p :     2.900335
      px      :     0.874807
      py      :     0.975112
      dz2     :     0.020091  d :     0.094121
      dxz     :     0.006390
      dyz     :     0.029059
      dx2y2   :     0.021600
      dxy     :     0.016981
      f0      :     0.000493  f :     0.006453
      f+1     :     0.000915
      f-1     :     0.001483
      f+2     :     0.000297
      f-2     :     0.000681
      f+3     :     0.001079
      f-3     :     0.001505
  9 C s       :     3.179501  s :     3.179501
      pz      :     0.814510  p :     2.303658
      px      :     0.815426
      py      :     0.673722
      dz2     :     0.068674  d :     0.226156
      dxz     :     0.055967
      dyz     :     0.046970
      dx2y2   :     0.027617
      dxy     :     0.026927
      f0      :     0.004913  f :     0.018435
      f+1     :     0.003671
      f-1     :     0.002623
      f+2     :     0.002657
      f-2     :     0.002464
      f+3     :     0.001132
      f-3     :     0.000975
 10 H s       :     0.862258  s :     0.862258
      pz      :     0.010144  p :     0.029615
      px      :     0.009332
      py      :     0.010139
      dz2     :     0.000619  d :     0.002498
      dxz     :     0.000592
      dyz     :     0.000695
      dx2y2   :     0.000216
      dxy     :     0.000376
 11 H s       :     0.842593  s :     0.842593
      pz      :     0.009435  p :     0.030069
      px      :     0.008551
      py      :     0.012083
      dz2     :     0.000581  d :     0.002502
      dxz     :     0.000516
      dyz     :     0.000646
      dx2y2   :     0.000288
      dxy     :     0.000470
 12 C s       :     3.197057  s :     3.197057
      pz      :     0.992778  p :     2.765985
      px      :     0.802380
      py      :     0.970827
      dz2     :     0.015873  d :     0.121118
      dxz     :     0.029423
      dyz     :     0.017413
      dx2y2   :     0.029500
      dxy     :     0.028908
      f0      :     0.001441  f :     0.006859
      f+1     :     0.001403
      f-1     :     0.000586
      f+2     :     0.000323
      f-2     :     0.000834
      f+3     :     0.000811
      f-3     :     0.001461
 13 N s       :     3.467292  s :     3.467292
      pz      :     1.336177  p :     3.812940
      px      :     1.323093
      py      :     1.153670
      dz2     :     0.011498  d :     0.055940
      dxz     :     0.008302
      dyz     :     0.012201
      dx2y2   :     0.013802
      dxy     :     0.010138
      f0      :     0.000503  f :     0.003561
      f+1     :     0.000343
      f-1     :     0.000594
      f+2     :     0.000759
      f-2     :     0.000492
      f+3     :     0.000566
      f-3     :     0.000304
 14 H s       :     0.843081  s :     0.843081
      pz      :     0.012850  p :     0.028976
      px      :     0.008660
      py      :     0.007466
      dz2     :     0.000856  d :     0.002602
      dxz     :     0.000623
      dyz     :     0.000656
      dx2y2   :     0.000187
      dxy     :     0.000281
 15 H s       :     0.883998  s :     0.883998
      pz      :     0.006867  p :     0.027275
      px      :     0.008062
      py      :     0.012346
      dz2     :     0.000313  d :     0.002356
      dxz     :     0.000093
      dyz     :     0.000537
      dx2y2   :     0.000674
      dxy     :     0.000739
 16 H s       :     0.893541  s :     0.893541
      pz      :     0.012218  p :     0.025558
      px      :     0.005552
      py      :     0.007789
      dz2     :     0.000924  d :     0.002434
      dxz     :     0.000752
      dyz     :     0.000723
      dx2y2   :     0.000022
      dxy     :     0.000014
 17 H s       :     0.787319  s :     0.787319
      pz      :     0.017757  p :     0.061399
      px      :     0.023737
      py      :     0.019905
      dz2     :     0.000590  d :     0.005248
      dxz     :     0.000328
      dyz     :     0.001514
      dx2y2   :     0.001314
      dxy     :     0.001502
 18 O s       :     3.757374  s :     3.757374
      pz      :     1.506876  p :     4.551300
      px      :     1.646729
      py      :     1.397695
      dz2     :     0.009468  d :     0.036824
      dxz     :     0.010694
      dyz     :     0.010250
      dx2y2   :     0.003551
      dxy     :     0.002860
      f0      :     0.000463  f :     0.002451
      f+1     :     0.000708
      f-1     :     0.000417
      f+2     :     0.000422
      f-2     :     0.000395
      f+3     :     0.000020
      f-3     :     0.000025
 19 Cls       :     5.931566  s :     5.931566
      pz      :     3.968178  p :    11.198475
      px      :     3.433642
      py      :     3.796655
      dz2     :     0.009604  d :     0.052007
      dxz     :     0.005759
      dyz     :     0.001890
      dx2y2   :     0.013038
      dxy     :     0.021717
      f0      :     0.000396  f :     0.004821
      f+1     :     0.000866
      f-1     :     0.000320
      f+2     :     0.000179
      f-2     :     0.000424
      f+3     :     0.000868
      f-3     :     0.001768
 20 H s       :     0.828842  s :     0.828842
      pz      :     0.012076  p :     0.033379
      px      :     0.014344
      py      :     0.006959
      dz2     :     0.000583  d :     0.002514
      dxz     :     0.000558
      dyz     :     0.000380
      dx2y2   :     0.000545
      dxy     :     0.000448
 21 H s       :     0.836487  s :     0.836487
      pz      :     0.012479  p :     0.032515
      px      :     0.007379
      py      :     0.012658
      dz2     :     0.000513  d :     0.002486
      dxz     :     0.000173
      dyz     :     0.000770
      dx2y2   :     0.000511
      dxy     :     0.000519
 22 H s       :     0.811819  s :     0.811819
      pz      :     0.004976  p :     0.021440
      px      :     0.008657
      py      :     0.007807
      dz2     :     0.000527  d :     0.002085
      dxz     :     0.000318
      dyz     :     0.000384
      dx2y2   :     0.000313
      dxy     :     0.000543


                     *******************************
                     * LOEWDIN POPULATION ANALYSIS *
                     *******************************

----------------------
LOEWDIN ATOMIC CHARGES
----------------------
   0 C :    0.030465
   1 C :   -0.050734
   2 C :    0.000129
   3 C :    0.105735
   4 H :   -0.014956
   5 H :   -0.016220
   6 H :   -0.016503
   7 C :   -0.078954
   8 C :    0.056226
   9 C :   -0.267545
  10 H :   -0.018111
  11 H :   -0.010179
  12 C :   -0.137009
  13 N :    0.320789
  14 H :   -0.019158
  15 H :   -0.027668
  16 H :   -0.027852
  17 H :   -0.111115
  18 O :    0.159343
  19 Cl:    0.210063
  20 H :   -0.029331
  21 H :   -0.025544
  22 H :   -0.031872

-------------------------------
LOEWDIN REDUCED ORBITAL CHARGES
-------------------------------
  0 C s       :     2.708815  s :     2.708815
      pz      :     0.949951  p :     2.816731
      px      :     0.939836
      py      :     0.926945
      dz2     :     0.065972  d :     0.401151
      dxz     :     0.085519
      dyz     :     0.074663
      dx2y2   :     0.089173
      dxy     :     0.085824
      f0      :     0.005546  f :     0.042838
      f+1     :     0.005468
      f-1     :     0.004561
      f+2     :     0.007928
      f-2     :     0.006098
      f+3     :     0.007005
      f-3     :     0.006231
  1 C s       :     2.706031  s :     2.706031
      pz      :     0.924273  p :     2.762124
      px      :     0.947840
      py      :     0.890011
      dz2     :     0.109964  d :     0.527962
      dxz     :     0.122266
      dyz     :     0.066439
      dx2y2   :     0.110458
      dxy     :     0.118834
      f0      :     0.005751  f :     0.054617
      f+1     :     0.008793
      f-1     :     0.005672
      f+2     :     0.010300
      f-2     :     0.006751
      f+3     :     0.007148
      f-3     :     0.010202
  2 C s       :     2.669392  s :     2.669392
      pz      :     0.950285  p :     2.757817
      px      :     0.843781
      py      :     0.963752
      dz2     :     0.156789  d :     0.513198
      dxz     :     0.091899
      dyz     :     0.041568
      dx2y2   :     0.114280
      dxy     :     0.108661
      f0      :     0.005596  f :     0.059464
      f+1     :     0.011446
      f-1     :     0.005117
      f+2     :     0.010504
      f-2     :     0.008893
      f+3     :     0.008696
      f-3     :     0.009212
  3 C s       :     2.659936  s :     2.659936
      pz      :     0.975628  p :     2.891863
      px      :     0.937852
      py      :     0.978384
      dz2     :     0.076418  d :     0.312742
      dxz     :     0.050356
      dyz     :     0.039596
      dx2y2   :     0.053359
      dxy     :     0.093013
      f0      :     0.003808  f :     0.029724
      f+1     :     0.004537
      f-1     :     0.002827
      f+2     :     0.004544
      f-2     :     0.003913
      f+3     :     0.005948
      f-3     :     0.004146
  4 H s       :     0.841563  s :     0.841563
      pz      :     0.048644  p :     0.146296
      px      :     0.041897
      py      :     0.055756
      dz2     :     0.006396  d :     0.027097
      dxz     :     0.003686
      dyz     :     0.005537
      dx2y2   :     0.005959
      dxy     :     0.005519
  5 H s       :     0.841183  s :     0.841183
      pz      :     0.069640  p :     0.148247
      px      :     0.036972
      py      :     0.041635
      dz2     :     0.008852  d :     0.026790
      dxz     :     0.007907
      dyz     :     0.008424
      dx2y2   :     0.000833
      dxy     :     0.000774
  6 H s       :     0.841543  s :     0.841543
      pz      :     0.039559  p :     0.148177
      px      :     0.047174
      py      :     0.061444
      dz2     :     0.002502  d :     0.026782
      dxz     :     0.002427
      dyz     :     0.006476
      dx2y2   :     0.008359
      dxy     :     0.007018
  7 C s       :     2.667963  s :     2.667963
      pz      :     0.906270  p :     2.723890
      px      :     0.929973
      py      :     0.887646
      dz2     :     0.142706  d :     0.616541
      dxz     :     0.083937
      dyz     :     0.134836
      dx2y2   :     0.115312
      dxy     :     0.139751
      f0      :     0.009488  f :     0.070560
      f+1     :     0.008102
      f-1     :     0.011370
      f+2     :     0.010168
      f-2     :     0.011311
      f+3     :     0.010568
      f-3     :     0.009553
  8 C s       :     2.673258  s :     2.673258
      pz      :     0.974903  p :     2.848061
      px      :     0.923210
      py      :     0.949948
      dz2     :     0.066182  d :     0.384866
      dxz     :     0.041858
      dyz     :     0.105905
      dx2y2   :     0.086453
      dxy     :     0.084468
      f0      :     0.003317  f :     0.037588
      f+1     :     0.005888
      f-1     :     0.005040
      f+2     :     0.004454
      f-2     :     0.004689
      f+3     :     0.006351
      f-3     :     0.007849
  9 C s       :     2.757799  s :     2.757799
      pz      :     0.991193  p :     2.597275
      px      :     0.918089
      py      :     0.687993
      dz2     :     0.257122  d :     0.797821
      dxz     :     0.214897
      dyz     :     0.146474
      dx2y2   :     0.086180
      dxy     :     0.093149
      f0      :     0.035861  f :     0.114650
      f+1     :     0.018088
      f-1     :     0.013750
      f+2     :     0.017605
      f-2     :     0.019790
      f+3     :     0.004929
      f-3     :     0.004627
 10 H s       :     0.841492  s :     0.841492
      pz      :     0.064534  p :     0.148673
      px      :     0.036814
      py      :     0.047326
      dz2     :     0.008416  d :     0.027946
      dxz     :     0.006187
      dyz     :     0.008090
      dx2y2   :     0.002493
      dxy     :     0.002760
 11 H s       :     0.832719  s :     0.832719
      pz      :     0.060294  p :     0.149577
      px      :     0.037247
      py      :     0.052037
      dz2     :     0.008075  d :     0.027883
      dxz     :     0.005212
      dyz     :     0.007515
      dx2y2   :     0.003086
      dxy     :     0.003995
 12 C s       :     2.726775  s :     2.726775
      pz      :     1.012963  p :     2.902792
      px      :     0.899156
      py      :     0.990673
      dz2     :     0.083114  d :     0.465043
      dxz     :     0.107790
      dyz     :     0.070734
      dx2y2   :     0.099275
      dxy     :     0.104129
      f0      :     0.008001  f :     0.042399
      f+1     :     0.007359
      f-1     :     0.003967
      f+2     :     0.004579
      f-2     :     0.005814
      f+3     :     0.005689
      f-3     :     0.006990
 13 N s       :     2.891373  s :     2.891373
      pz      :     1.249189  p :     3.573128
      px      :     1.196652
      py      :     1.127287
      dz2     :     0.037073  d :     0.199993
      dxz     :     0.036031
      dyz     :     0.041411
      dx2y2   :     0.044871
      dxy     :     0.040607
      f0      :     0.002205  f :     0.014716
      f+1     :     0.002155
      f-1     :     0.002071
      f+2     :     0.001653
      f-2     :     0.001977
      f+3     :     0.002585
      f-3     :     0.002070
 14 H s       :     0.844603  s :     0.844603
      pz      :     0.068161  p :     0.147522
      px      :     0.037861
      py      :     0.041500
      dz2     :     0.008735  d :     0.027033
      dxz     :     0.006417
      dyz     :     0.007765
      dx2y2   :     0.001738
      dxy     :     0.002378
 15 H s       :     0.855917  s :     0.855917
      pz      :     0.037725  p :     0.145475
      px      :     0.038198
      py      :     0.069552
      dz2     :     0.002875  d :     0.026277
      dxz     :     0.001310
      dyz     :     0.007227
      dx2y2   :     0.007436
      dxy     :     0.007429
 16 H s       :     0.858441  s :     0.858441
      pz      :     0.075196  p :     0.143281
      px      :     0.028815
      py      :     0.039271
      dz2     :     0.009671  d :     0.026130
      dxz     :     0.007212
      dyz     :     0.008709
      dx2y2   :     0.000343
      dxy     :     0.000195
 17 H s       :     0.775521  s :     0.775521
      pz      :     0.083411  p :     0.274150
      px      :     0.080706
      py      :     0.110033
      dz2     :     0.006740  d :     0.061444
      dxz     :     0.003714
      dyz     :     0.017557
      dx2y2   :     0.016567
      dxy     :     0.016866
 18 O s       :     3.369166  s :     3.369166
      pz      :     1.535080  p :     4.395988
      px      :     1.542242
      py      :     1.318666
      dz2     :     0.024787  d :     0.070086
      dxz     :     0.021484
      dyz     :     0.013149
      dx2y2   :     0.004617
      dxy     :     0.006049
      f0      :     0.001675  f :     0.005417
      f+1     :     0.001344
      f-1     :     0.000719
      f+2     :     0.000638
      f-2     :     0.000839
      f+3     :     0.000053
      f-3     :     0.000148
 19 Cls       :     5.658305  s :     5.658305
      pz      :     3.888104  p :    11.034276
      px      :     3.406610
      py      :     3.739563
      dz2     :     0.013765  d :     0.087282
      dxz     :     0.013358
      dyz     :     0.004285
      dx2y2   :     0.024193
      dxy     :     0.031680
      f0      :     0.001077  f :     0.010074
      f+1     :     0.001435
      f-1     :     0.000579
      f+2     :     0.000440
      f-2     :     0.001144
      f+3     :     0.002567
      f-3     :     0.002832
 20 H s       :     0.834360  s :     0.834360
      pz      :     0.052349  p :     0.166793
      px      :     0.066714
      py      :     0.047730
      dz2     :     0.006219  d :     0.028177
      dxz     :     0.006321
      dyz     :     0.003964
      dx2y2   :     0.005644
      dxy     :     0.006029
 21 H s       :     0.842089  s :     0.842089
      pz      :     0.050743  p :     0.155757
      px      :     0.032493
      py      :     0.072521
      dz2     :     0.005557  d :     0.027699
      dxz     :     0.001481
      dyz     :     0.008307
      dx2y2   :     0.005938
      dxy     :     0.006416
 22 H s       :     0.850923  s :     0.850923
      pz      :     0.052781  p :     0.154540
      px      :     0.039503
      py      :     0.062255
      dz2     :     0.006020  d :     0.026410
      dxz     :     0.003711
      dyz     :     0.006467
      dx2y2   :     0.004933
      dxy     :     0.005279


                      *****************************
                      * MAYER POPULATION ANALYSIS *
                      *****************************

  NA   - Mulliken gross atomic population
  ZA   - Total nuclear charge
  QA   - Mulliken gross atomic charge
  VA   - Mayer's total valence
  BVA  - Mayer's bonded valence
  FA   - Mayer's free valence

  ATOM       NA         ZA         QA         VA         BVA        FA
  0 C      6.2860     6.0000    -0.2860     3.8316     3.8316    -0.0000
  1 C      5.9834     6.0000     0.0166     3.7323     3.7323    -0.0000
  2 C      6.0502     6.0000    -0.0502     3.9657     3.9657    -0.0000
  3 C      6.2583     6.0000    -0.2583     3.8896     3.8896     0.0000
  4 H      0.8969     1.0000     0.1031     0.9847     0.9847     0.0000
  5 H      0.9032     1.0000     0.0968     0.9759     0.9759     0.0000
  6 H      0.9042     1.0000     0.0958     0.9757     0.9757    -0.0000
  7 C      5.9298     6.0000     0.0702     3.8908     3.8908     0.0000
  8 C      6.1898     6.0000    -0.1898     3.7625     3.7625    -0.0000
  9 C      5.7278     6.0000     0.2722     3.9878     3.9878     0.0000
 10 H      0.8944     1.0000     0.1056     0.9966     0.9966    -0.0000
 11 H      0.8752     1.0000     0.1248     0.9971     0.9971    -0.0000
 12 C      6.0910     6.0000    -0.0910     3.7966     3.7966    -0.0000
 13 N      7.3397     7.0000    -0.3397     2.9575     2.9575     0.0000
 14 H      0.8747     1.0000     0.1253     0.9878     0.9878    -0.0000
 15 H      0.9136     1.0000     0.0864     0.9731     0.9731     0.0000
 16 H      0.9215     1.0000     0.0785     0.9678     0.9678    -0.0000
 17 H      0.8540     1.0000     0.1460     1.0084     1.0084     0.0000
 18 O      8.3479     8.0000    -0.3479     2.1406     2.1406     0.0000
 19 Cl    17.1869    17.0000    -0.1869     1.0128     1.0128    -0.0000
 20 H      0.8647     1.0000     0.1353     1.0156     1.0156     0.0000
 21 H      0.8715     1.0000     0.1285     0.9810     0.9810     0.0000
 22 H      0.8353     1.0000     0.1647     0.9740     0.9740     0.0000

  Mayer bond orders larger than 0.100000
B(  0-C ,  1-C ) :   1.8518 B(  0-C ,  7-C ) :   0.9945 B(  0-C , 22-H ) :   0.9471 
B(  1-C ,  2-C ) :   0.9811 B(  1-C ,  3-C ) :   0.9569 B(  2-C , 13-N ) :   0.9970 
B(  2-C , 15-H ) :   0.9792 B(  2-C , 16-H ) :   0.9743 B(  3-C ,  4-H ) :   0.9899 
B(  3-C ,  5-H ) :   0.9730 B(  3-C ,  6-H ) :   0.9717 B(  7-C ,  8-C ) :   0.9319 
B(  7-C , 13-N ) :   0.9609 B(  7-C , 14-H ) :   0.9804 B(  8-C ,  9-C ) :   0.9336 
B(  8-C , 10-H ) :   0.9764 B(  8-C , 11-H ) :   0.9759 B(  9-C , 12-C ) :   0.9249 
B(  9-C , 18-O ) :   2.1174 B( 12-C , 19-Cl) :   0.9986 B( 12-C , 20-H ) :   0.9484 
B( 12-C , 21-H ) :   0.9631 B( 13-N , 17-H ) :   0.9805 

-------
TIMINGS
-------

Total SCF time: 0 days 0 hours 33 min 9 sec 

Total time                  ....    1989.154 sec
Sum of individual times     ....    1986.253 sec  ( 99.9%)

Fock matrix formation       ....    1978.048 sec  ( 99.4%)
Diagonalization             ....       0.678 sec  (  0.0%)
Density matrix formation    ....       0.074 sec  (  0.0%)
Population analysis         ....       0.153 sec  (  0.0%)
Initial guess               ....       4.855 sec  (  0.2%)
Orbital Transformation      ....       0.000 sec  (  0.0%)
Orbital Orthonormalization  ....       0.000 sec  (  0.0%)
DIIS solution               ....       0.313 sec  (  0.0%)
SOSCF solution              ....       0.309 sec  (  0.0%)

Maximum memory used throughout the entire SCF-calculation: 425.2 MB

-------------------------   --------------------
FINAL SINGLE POINT ENERGY      -898.887250182816
-------------------------   --------------------


                            ***************************************
                            *     ORCA property calculations      *
                            ***************************************

                                    ---------------------
                                    Active property flags
                                    ---------------------
   (+) Dipole Moment


------------------------------------------------------------------------------
                       ORCA ELECTRIC PROPERTIES CALCULATION
------------------------------------------------------------------------------

Dipole Moment Calculation                       ... on
Quadrupole Moment Calculation                   ... off
Polarizability Calculation                      ... off
GBWName                                         ... RHF.gbw
Electron density                                ... RHF.scfp
The origin for moment calculation is the CENTER OF MASS  = ( 2.637983,  1.551899  0.056928)

-------------
DIPOLE MOMENT
-------------
                                X             Y             Z
Electronic contribution:     22.44553      -2.16755      -0.98727
Nuclear contribution   :    -24.46675       2.52936       1.68763
                        -----------------------------------------
Total Dipole Moment    :     -2.02122       0.36181       0.70036
                        -----------------------------------------
Magnitude (a.u.)       :      2.16950
Magnitude (Debye)      :      5.51443



--------------------
Rotational spectrum 
--------------------
 
Rotational constants in cm-1:     0.078975     0.013377     0.012208 
Rotational constants in MHz :  2367.608052   401.025928   365.983271 

 Dipole components along the rotational axes: 
x,y,z [a.u.] :    -2.025958    -0.419007     0.653183 
x,y,z [Debye]:    -5.149576    -1.065031     1.660260 

 

Timings for individual modules:

Sum of individual times         ...     1992.685 sec (=  33.211 min)
GTO integral calculation        ...        3.386 sec (=   0.056 min)   0.2 %
SCF iterations                  ...     1989.299 sec (=  33.155 min)  99.8 %
                             ****ORCA TERMINATED NORMALLY****
TOTAL RUN TIME: 0 days 0 hours 33 minutes 14 seconds 95 msec
