
                                 *****************
                                 * O   R   C   A *
                                 *****************

           --- An Ab Initio, DFT and Semiempirical electronic structure package ---

                  #######################################################
                  #                        -***-                        #
                  #          Department of theory and spectroscopy      #
                  #               Directorship: Frank Neese             #
                  #        Max Planck Institute fuer Kohlenforschung    #
                  #                Kaiser Wilhelm Platz 1               #
                  #                 D-45470 Muelheim/Ruhr               #
                  #                      Germany                        #
                  #                                                     #
                  #                  All rights reserved                #
                  #                        -***-                        #
                  #######################################################


                         Program Version 4.2.1 -  RELEASE  -


 With contributions from (in alphabetic order):
   Daniel Aravena         : Magnetic Suceptibility
   Michael Atanasov       : Ab Initio Ligand Field Theory (pilot matlab implementation)
   Alexander A. Auer      : GIAO ZORA, VPT2
   Ute Becker             : Parallelization
   Giovanni Bistoni       : ED, misc. LED, open-shell LED, HFLD
   Martin Brehm           : Molecular dynamics
   Dmytro Bykov           : SCF Hessian
   Vijay G. Chilkuri      : MRCI spin determinant printing, contributions to CSF-ICE
   Dipayan Datta          : RHF DLPNO-CCSD density
   Achintya Kumar Dutta   : EOM-CC, STEOM-CC
   Dmitry Ganyushin       : Spin-Orbit,Spin-Spin,Magnetic field MRCI
   Miquel Garcia          : C-PCM Hessian, Gaussian charge scheme
   Yang Guo               : DLPNO-NEVPT2, CIM, IAO-localization
   Andreas Hansen         : Spin unrestricted coupled pair/coupled cluster methods
   Benjamin Helmich-Paris : CASSCF linear response (MC-RPA)
   Lee Huntington         : MR-EOM, pCC
   Robert Izsak           : Overlap fitted RIJCOSX, COSX-SCS-MP3, EOM
   Christian Kollmar      : KDIIS, OOCD, Brueckner-CCSD(T), CCSD density
   Simone Kossmann        : Meta GGA functionals, TD-DFT gradient, OOMP2, MP2 Hessian
   Martin Krupicka        : AUTO-CI
   Lucas Lang             : DCDCAS
   Dagmar Lenk            : GEPOL surface, SMD
   Dimitrios Liakos       : Extrapolation schemes; Compound Job, initial MDCI parallelization
   Dimitrios Manganas     : Further ROCIS development; embedding schemes
   Dimitrios Pantazis     : SARC Basis sets
   Taras Petrenko         : DFT Hessian,TD-DFT gradient, ASA, ECA, R-Raman, ABS, FL, XAS/XES, NRVS
   Peter Pinski           : DLPNO-MP2, DLPNO-MP2 Gradient
   Christoph Reimann      : Effective Core Potentials
   Marius Retegan         : Local ZFS, SOC
   Christoph Riplinger    : Optimizer, TS searches, QM/MM, DLPNO-CCSD(T), (RO)-DLPNO pert. Triples
   Tobias Risthaus        : Range-separated hybrids, TD-DFT gradient, RPA, STAB
   Michael Roemelt        : Original ROCIS implementation
   Masaaki Saitow         : Open-shell DLPNO-CCSD energy and density
   Barbara Sandhoefer     : DKH picture change effects
   Avijit Sen             : IP-ROCIS
   Kantharuban Sivalingam : CASSCF convergence, NEVPT2, FIC-MRCI
   Bernardo de Souza      : ESD, SOC TD-DFT
   Georgi Stoychev        : AutoAux, RI-MP2 NMR
   Willem Van den Heuvel  : Paramagnetic NMR
   Boris Wezisla          : Elementary symmetry handling
   Frank Wennmohs         : Technical directorship


 We gratefully acknowledge several colleagues who have allowed us to
 interface, adapt or use parts of their codes:
   Stefan Grimme, W. Hujo, H. Kruse,             : VdW corrections, initial TS optimization,
                  C. Bannwarth                     DFT functionals, gCP, sTDA/sTD-DF
   Ed Valeev, F. Pavosevic, A. Kumar             : LibInt (2-el integral package), F12 methods
   Garnet Chan, S. Sharma, J. Yang, R. Olivares  : DMRG
   Ulf Ekstrom                                   : XCFun DFT Library
   Mihaly Kallay                                 : mrcc  (arbitrary order and MRCC methods)
   Andreas Klamt, Michael Diedenhofen            : otool_cosmo (COSMO solvation model)
   Jiri Pittner, Ondrej Demel                    : Mk-CCSD
   Frank Weinhold                                : gennbo (NPA and NBO analysis)
   Christopher J. Cramer and Donald G. Truhlar   : smd solvation model
   Lars Goerigk                                  : TD-DFT with DH, B97 family of functionals
   V. Asgeirsson, H. Jonsson                     : NEB implementation
   FAccTs GmbH                                   : IRC, NEB, NEB-TS, Multilevel, MM, QM/MM, CI optimization
   S Lehtola, MJT Oliveira, MAL Marques          : LibXC Library


 Your calculation uses the libint2 library for the computation of 2-el integrals
 For citations please refer to: http://libint.valeyev.net

 Your ORCA version has been built with support for libXC version: 4.2.3
 For citations please refer to: https://tddft.org/programs/libxc/

 This ORCA versions uses:
   CBLAS   interface :  Fast vector & matrix operations
   LAPACKE interface :  Fast linear algebra routines


----- Orbital basis set information -----
Your calculation utilizes the basis: def2-SVP
   F. Weigend and R. Ahlrichs, Phys. Chem. Chem. Phys. 7, 3297 (2005).

================================================================================
                                        WARNINGS
                       Please study these warnings very carefully!
================================================================================


WARNING: Geometry Optimization
  ===> : Switching off AutoStart
         For restart on a previous wavefunction, please use MOREAD

INFO   : the flag for use of LIBINT has been found!

================================================================================
                                       INPUT FILE
================================================================================
NAME = toluol_optfreq.inp
|  1> !B3LYP DEF2-SVP OPT FREQ
|  2> 
|  3> * xyz 0 1
|  4>    C       -6.18961        1.04447        0.00000
|  5>    C       -7.38113        0.30061        0.00000
|  6>    C       -7.34047       -1.09927        0.00000
|  7>    C       -6.11307       -1.76392        0.00000
|  8>    C       -4.92237       -1.03457       -0.00000
|  9>    C       -4.95672        0.36663        0.00000
| 10>    C       -6.24855        2.54911        0.00000
| 11>    H       -5.23302        3.00015        0.00000
| 12>    H       -6.78858        2.90958        0.90153
| 13>    H       -6.78858        2.90958       -0.90153
| 14>    H       -8.34135        0.80038        0.00000
| 15>    H       -8.25957       -1.67061        0.00000
| 16>    H       -6.08497       -2.84679       -0.00000
| 17>    H       -3.97493       -1.55829       -0.00000
| 18>    H       -4.02236        0.91392        0.00000
| 19> **                         ****END OF INPUT****
================================================================================

                       *****************************
                       * Geometry Optimization Run *
                       *****************************

Geometry optimization settings:
Update method            Update   .... BFGS
Choice of coordinates    CoordSys .... Z-matrix Internals
Initial Hessian          InHess   .... Almoef's Model

Convergence Tolerances:
Energy Change            TolE     ....  5.0000e-06 Eh
Max. Gradient            TolMAXG  ....  3.0000e-04 Eh/bohr
RMS Gradient             TolRMSG  ....  1.0000e-04 Eh/bohr
Max. Displacement        TolMAXD  ....  4.0000e-03 bohr
RMS Displacement         TolRMSD  ....  2.0000e-03 bohr
Strict Convergence                ....  False
------------------------------------------------------------------------------
                        ORCA OPTIMIZATION COORDINATE SETUP
------------------------------------------------------------------------------

The optimization will be done in new redundant internal coordinates
Making redundant internal coordinates   ...  (new redundants) done
Evaluating the initial hessian          ...  (Almloef) done
Evaluating the coordinates              ...  done
Calculating the B-matrix                .... done
Calculating the G-matrix                .... done
Diagonalizing the G-matrix              .... done
The first mode is                       ....   30
The number of degrees of freedom        ....   39

    -----------------------------------------------------------------
                    Redundant Internal Coordinates


    -----------------------------------------------------------------
         Definition                    Initial Value    Approx d2E/dq
    -----------------------------------------------------------------
      1. B(C   1,C   0)                  1.4047         0.592055   
      2. B(C   2,C   1)                  1.4005         0.601220   
      3. B(C   3,C   2)                  1.3958         0.611614   
      4. B(C   4,C   3)                  1.3963         0.610451   
      5. B(C   5,C   4)                  1.4016         0.598685   
      6. B(C   5,C   0)                  1.4069         0.587096   
      7. B(C   6,C   0)                  1.5058         0.408316   
      8. B(H   7,C   6)                  1.1112         0.333134   
      9. B(H   8,C   6)                  1.1110         0.333361   
     10. B(H   9,C   6)                  1.1110         0.333361   
     11. B(H  10,C   1)                  1.0825         0.370168   
     12. B(H  11,C   2)                  1.0822         0.370557   
     13. B(H  12,C   3)                  1.0832         0.369162   
     14. B(H  13,C   4)                  1.0826         0.370085   
     15. B(H  14,C   5)                  1.0828         0.369690   
     16. A(C   5,C   0,C   6)          121.0451         0.399088   
     17. A(C   1,C   0,C   6)          119.7331         0.399679   
     18. A(C   1,C   0,C   5)          119.2218         0.426294   
     19. A(C   2,C   1,H  10)          119.1595         0.352719   
     20. A(C   0,C   1,C   2)          120.3126         0.428114   
     21. A(C   0,C   1,H  10)          120.5278         0.351804   
     22. A(C   3,C   2,H  11)          119.6977         0.353807   
     23. A(C   1,C   2,C   3)          120.0997         0.430618   
     24. A(C   1,C   2,H  11)          120.2026         0.352782   
     25. A(C   2,C   3,C   4)          120.0749         0.431798   
     26. A(C   4,C   3,H  12)          120.0026         0.353467   
     27. A(C   2,C   3,H  12)          119.9225         0.353581   
     28. A(C   3,C   4,H  13)          119.5782         0.353616   
     29. A(C   5,C   4,H  13)          120.3370         0.352453   
     30. A(C   3,C   4,C   5)          120.0848         0.430144   
     31. A(C   0,C   5,C   4)          120.2062         0.427145   
     32. A(C   0,C   5,H  14)          120.8390         0.351227   
     33. A(C   4,C   5,H  14)          118.9548         0.352390   
     34. A(H   8,C   6,H   9)          108.4769         0.283911   
     35. A(H   7,C   6,H   9)          108.2119         0.283882   
     36. A(C   0,C   6,H   9)          110.0739         0.324946   
     37. A(H   7,C   6,H   8)          108.2119         0.283882   
     38. A(C   0,C   6,H   8)          110.0739         0.324946   
     39. A(C   0,C   6,H   7)          111.7048         0.324910   
     40. D(C   2,C   1,C   0,C   5)      0.0000         0.024131   
     41. D(H  10,C   1,C   0,C   5)    180.0000         0.024131   
     42. D(C   2,C   1,C   0,C   6)    180.0000         0.024131   
     43. D(H  10,C   1,C   0,C   6)      0.0000         0.024131   
     44. D(H  11,C   2,C   1,C   0)    180.0000         0.024924   
     45. D(C   3,C   2,C   1,C   0)      0.0000         0.024924   
     46. D(C   3,C   2,C   1,H  10)    180.0000         0.024924   
     47. D(H  11,C   2,C   1,H  10)      0.0000         0.024924   
     48. D(H  12,C   3,C   2,H  11)      0.0000         0.025843   
     49. D(H  12,C   3,C   2,C   1)    180.0000         0.025843   
     50. D(C   4,C   3,C   2,H  11)    180.0000         0.025843   
     51. D(C   4,C   3,C   2,C   1)      0.0000         0.025843   
     52. D(C   5,C   4,C   3,H  12)    180.0000         0.025739   
     53. D(C   5,C   4,C   3,C   2)      0.0000         0.025739   
     54. D(H  13,C   4,C   3,C   2)    180.0000         0.025739   
     55. D(H  13,C   4,C   3,H  12)      0.0000         0.025739   
     56. D(H  14,C   5,C   4,H  13)      0.0000         0.024703   
     57. D(C   0,C   5,C   4,H  13)    180.0000         0.024703   
     58. D(C   0,C   5,C   4,C   3)      0.0000         0.024703   
     59. D(H  14,C   5,C   0,C   6)      0.0000         0.023708   
     60. D(H  14,C   5,C   0,C   1)    180.0000         0.023708   
     61. D(H  14,C   5,C   4,C   3)    180.0000         0.024703   
     62. D(C   4,C   5,C   0,C   6)    180.0000         0.023708   
     63. D(C   4,C   5,C   0,C   1)      0.0000         0.023708   
     64. D(H   9,C   6,C   0,C   5)    120.2381         0.012352   
     65. D(H   9,C   6,C   0,C   1)    -59.7619         0.012352   
     66. D(H   8,C   6,C   0,C   5)   -120.2381         0.012352   
     67. D(H   8,C   6,C   0,C   1)     59.7619         0.012352   
     68. D(H   7,C   6,C   0,C   5)      0.0000         0.012352   
     69. D(H   7,C   6,C   0,C   1)    180.0000         0.012352   
    -----------------------------------------------------------------

Number of atoms                         .... 15
Number of degrees of freedom            .... 69

         *************************************************************
         *                GEOMETRY OPTIMIZATION CYCLE   1            *
         *************************************************************
---------------------------------
CARTESIAN COORDINATES (ANGSTROEM)
---------------------------------
  C     -6.189610    1.044470    0.000000
  C     -7.381130    0.300610    0.000000
  C     -7.340470   -1.099270    0.000000
  C     -6.113070   -1.763920    0.000000
  C     -4.922370   -1.034570   -0.000000
  C     -4.956720    0.366630    0.000000
  C     -6.248550    2.549110    0.000000
  H     -5.233020    3.000150    0.000000
  H     -6.788580    2.909580    0.901530
  H     -6.788580    2.909580   -0.901530
  H     -8.341350    0.800380    0.000000
  H     -8.259570   -1.670610    0.000000
  H     -6.084970   -2.846790   -0.000000
  H     -3.974930   -1.558290   -0.000000
  H     -4.022360    0.913920    0.000000

----------------------------
CARTESIAN COORDINATES (A.U.)
----------------------------
  NO LB      ZA    FRAG     MASS         X           Y           Z
   0 C     6.0000    0    12.011  -11.696668    1.973762    0.000000
   1 C     6.0000    0    12.011  -13.948314    0.568071    0.000000
   2 C     6.0000    0    12.011  -13.871478   -2.077319    0.000000
   3 C     6.0000    0    12.011  -11.552028   -3.333326    0.000000
   4 C     6.0000    0    12.011   -9.301931   -1.955054   -0.000000
   5 C     6.0000    0    12.011   -9.366843    0.692830    0.000000
   6 C     6.0000    0    12.011  -11.808048    4.817120    0.000000
   7 H     1.0000    0     1.008   -9.888975    5.669462    0.000000
   8 H     1.0000    0     1.008  -12.828557    5.498309    1.703645
   9 H     1.0000    0     1.008  -12.828557    5.498309   -1.703645
  10 H     1.0000    0     1.008  -15.762867    1.512499    0.000000
  11 H     1.0000    0     1.008  -15.608325   -3.156995    0.000000
  12 H     1.0000    0     1.008  -11.498927   -5.379653   -0.000000
  13 H     1.0000    0     1.008   -7.511529   -2.944741   -0.000000
  14 H     1.0000    0     1.008   -7.601159    1.727059    0.000000

--------------------------------
INTERNAL COORDINATES (ANGSTROEM)
--------------------------------
 C      0   0   0     0.000000000000     0.00000000     0.00000000
 C      1   0   0     1.404652131312     0.00000000     0.00000000
 C      2   1   0     1.400470367412   120.31261969     0.00000000
 C      3   2   1     1.395804564579   120.09971871     0.00000000
 C      4   3   2     1.396322997197   120.07490162     0.00000000
 C      5   4   3     1.401620976762   120.08478004     0.00000000
 C      1   2   3     1.505793961072   119.73307516   180.00000000
 H      7   1   2     1.111187771036   111.70478672   180.00000000
 H      7   1   2     1.111002863498   110.07390506    59.76186590
 H      7   1   2     1.111002863498   110.07390506   300.23813410
 H      2   1   3     1.082493649543   120.52784573   180.00000000
 H      3   2   1     1.082208023256   120.20260993   180.00000000
 H      4   3   2     1.083234529961   119.92247734   180.00000000
 H      5   4   3     1.082554937174   119.57824498   180.00000000
 H      6   5   4     1.082845766349   118.95481224   180.00000121

---------------------------
INTERNAL COORDINATES (A.U.)
---------------------------
 C      0   0   0     0.000000000000     0.00000000     0.00000000
 C      1   0   0     2.654407841609     0.00000000     0.00000000
 C      2   1   0     2.646505453081   120.31261969     0.00000000
 C      3   2   1     2.637688363532   120.09971871     0.00000000
 C      4   3   2     2.638668059198   120.07490162     0.00000000
 C      5   4   3     2.648679789640   120.08478004     0.00000000
 C      1   2   3     2.845538200538   119.73307516   180.00000000
 H      7   1   2     2.099840570620   111.70478672   180.00000000
 H      7   1   2     2.099491146013   110.07390506    59.76186590
 H      7   1   2     2.099491146013   110.07390506   300.23813410
 H      2   1   3     2.045616539344   120.52784573   180.00000000
 H      3   2   1     2.045076783886   120.20260993   180.00000000
 H      4   3   2     2.047016600433   119.92247734   180.00000000
 H      5   4   3     2.045732356183   119.57824498   180.00000000
 H      6   5   4     2.046281943676   118.95481224   180.00000121

---------------------
BASIS SET INFORMATION
---------------------
There are 2 groups of distinct atoms

 Group   1 Type C   : 7s4p1d contracted to 3s2p1d pattern {511/31/1}
 Group   2 Type H   : 4s1p contracted to 2s1p pattern {31/1}

Atom   0C    basis set group =>   1
Atom   1C    basis set group =>   1
Atom   2C    basis set group =>   1
Atom   3C    basis set group =>   1
Atom   4C    basis set group =>   1
Atom   5C    basis set group =>   1
Atom   6C    basis set group =>   1
Atom   7H    basis set group =>   2
Atom   8H    basis set group =>   2
Atom   9H    basis set group =>   2
Atom  10H    basis set group =>   2
Atom  11H    basis set group =>   2
Atom  12H    basis set group =>   2
Atom  13H    basis set group =>   2
Atom  14H    basis set group =>   2
------------------------------------------------------------------------------
                           ORCA GTO INTEGRAL CALCULATION
------------------------------------------------------------------------------

                         BASIS SET STATISTICS AND STARTUP INFO

 # of primitive gaussian shells          ...  124
 # of primitive gaussian functions       ...  224
 # of contracted shells                  ...   66
 # of contracted basis functions         ...  138
 Highest angular momentum                ...    2
 Maximum contraction depth               ...    5
 Integral package used                   ... LIBINT
 Integral threshhold            Thresh   ...  2.500e-11
 Primitive cut-off              TCut     ...  2.500e-12


------------------------------ INTEGRAL EVALUATION ----------------------------


 * One electron integrals 
 Pre-screening matrix                    ... done
 Shell pair data                         ... done (   0.001 sec)

Timings:
 Total evaluation time               ...     0.002 sec (   0.000 min)
 One electron matrix time            ...     0.029 sec (   0.000 min) =1450.0%
 Schwartz matrix evaluation time     ...     0.147 sec (   0.002 min) =7350.0%

-------------------------------------------------------------------------------
                                 ORCA SCF
-------------------------------------------------------------------------------

------------
SCF SETTINGS
------------
Hamiltonian:
 Density Functional     Method          .... DFT(GTOs)
 Exchange Functional    Exchange        .... B88
   X-Alpha parameter    XAlpha          ....  0.666667
   Becke's b parameter  XBeta           ....  0.004200
 Correlation Functional Correlation     .... LYP
 LDA part of GGA corr.  LDAOpt          .... VWN-5
 Gradients option       PostSCFGGA      .... off
 Hybrid DFT is turned on
   Fraction HF Exchange ScalHFX         ....  0.200000
   Scaling of DF-GGA-X  ScalDFX         ....  0.720000
   Scaling of DF-GGA-C  ScalDFC         ....  0.810000
   Scaling of DF-LDA-C  ScalLDAC        ....  1.000000
   Perturbative correction              ....  0.000000
   Density functional embedding theory  .... OFF
   NL short-range parameter             ....  4.800000


General Settings:
 Integral files         IntName         .... toluol_optfreq
 Hartree-Fock type      HFTyp           .... RHF
 Total Charge           Charge          ....    0
 Multiplicity           Mult            ....    1
 Number of Electrons    NEL             ....   50
 Basis Dimension        Dim             ....  138
 Nuclear Repulsion      ENuc            ....    268.3621902501 Eh

Convergence Acceleration:
 DIIS                   CNVDIIS         .... on
   Start iteration      DIISMaxIt       ....    12
   Startup error        DIISStart       ....  0.200000
   # of expansion vecs  DIISMaxEq       ....     5
   Bias factor          DIISBfac        ....   1.050
   Max. coefficient     DIISMaxC        ....  10.000
 Newton-Raphson         CNVNR           .... off
 SOSCF                  CNVSOSCF        .... on
   Start iteration      SOSCFMaxIt      ....   150
   Startup grad/error   SOSCFStart      ....  0.003300
 Level Shifting         CNVShift        .... on
   Level shift para.    LevelShift      ....    0.2500
   Turn off err/grad.   ShiftErr        ....    0.0010
 Zerner damping         CNVZerner       .... off
 Static damping         CNVDamp         .... on
   Fraction old density DampFac         ....    0.7000
   Max. Damping (<1)    DampMax         ....    0.9800
   Min. Damping (>=0)   DampMin         ....    0.0000
   Turn off err/grad.   DampErr         ....    0.1000
 Fernandez-Rico         CNVRico         .... off

SCF Procedure:
 Maximum # iterations   MaxIter         ....   125
 SCF integral mode      SCFMode         .... Direct
   Integral package                     .... LIBINT
 Reset frequency        DirectResetFreq ....    20
 Integral Threshold     Thresh          ....  2.500e-11 Eh
 Primitive CutOff       TCut            ....  2.500e-12 Eh

Convergence Tolerance:
 Convergence Check Mode ConvCheckMode   .... Total+1el-Energy
 Convergence forced     ConvForced      .... 0
 Energy Change          TolE            ....  1.000e-08 Eh
 1-El. energy change                    ....  1.000e-05 Eh
 Orbital Gradient       TolG            ....  1.000e-05
 Orbital Rotation angle TolX            ....  1.000e-05
 DIIS Error             TolErr          ....  5.000e-07


Diagonalization of the overlap matrix:
Smallest eigenvalue                        ... 3.069e-04
Time for diagonalization                   ...    0.009 sec
Threshold for overlap eigenvalues          ... 1.000e-08
Number of eigenvalues below threshold      ... 0
Time for construction of square roots      ...    0.004 sec
Total time needed                          ...    0.014 sec

-------------------
DFT GRID GENERATION
-------------------

General Integration Accuracy     IntAcc      ...  4.340
Radial Grid Type                 RadialGrid  ... Gauss-Chebyshev
Angular Grid (max. acc.)         AngularGrid ... Lebedev-110
Angular grid pruning method      GridPruning ... 3 (G Style)
Weight generation scheme         WeightScheme... Becke
Basis function cutoff            BFCut       ...    1.0000e-11
Integration weight cutoff        WCut        ...    1.0000e-14
Grids for H and He will be reduced by one unit

# of grid points (after initial pruning)     ...  17944 (   0.0 sec)
# of grid points (after weights+screening)   ...  16644 (   0.1 sec)
nearest neighbour list constructed           ...    0.0 sec
Grid point re-assignment to atoms done       ...    0.0 sec
Grid point division into batches done        ...    0.0 sec
Reduced shell lists constructed in    0.2 sec

Total number of grid points                  ...    16644
Total number of batches                      ...      268
Average number of points per batch           ...       62
Average number of grid points per atom       ...     1110
Average number of shells per batch           ...    49.53 (75.04%)
Average number of basis functions per batch  ...   102.49 (74.27%)
Average number of large shells per batch     ...    40.29 (81.34%)
Average number of large basis fcns per batch ...    82.64 (80.62%)
Maximum spatial batch extension              ...  20.29, 20.50, 25.60 au
Average spatial batch extension              ...   3.98,  3.72,  4.13 au

Time for grid setup =    0.281 sec

------------------------------
INITIAL GUESS: MODEL POTENTIAL
------------------------------
Loading Hartree-Fock densities                     ... done
Calculating cut-offs                               ... done
Setting up the integral package                    ... done
Initializing the effective Hamiltonian             ... done
Starting the Coulomb interaction                   ... done (   0.3 sec)
Reading the grid                                   ... done
Mapping shells                                     ... done
Starting the XC term evaluation                    ... done (   0.9 sec)
  promolecular density results
     # of electrons  =     49.997968747
     EX              =    -38.334759987
     EC              =     -1.633378396
     EX+EC           =    -39.968138384
Transforming the Hamiltonian                       ... done (   0.0 sec)
Diagonalizing the Hamiltonian                      ... done (   0.0 sec)
Back transforming the eigenvectors                 ... done (   0.0 sec)
Now organizing SCF variables                       ... done
                      ------------------
                      INITIAL GUESS DONE (   1.8 sec)
                      ------------------
--------------
SCF ITERATIONS
--------------
ITER       Energy         Delta-E        Max-DP      RMS-DP      [F,P]     Damp
               ***  Starting incremental Fock matrix formation  ***
  0   -271.0204482500   0.000000000000 0.07384576  0.00275644  0.1604424 0.7000
  1   -271.0952836112  -0.074835361200 0.04618404  0.00196502  0.0869660 0.7000
                               ***Turning on DIIS***
  2   -271.1286941358  -0.033410524603 0.06739985  0.00350016  0.0356036 0.0000
  3   -271.1748675902  -0.046173454482 0.03298115  0.00119341  0.0451208 0.0000
  4   -271.1876068371  -0.012739246813 0.00587236  0.00032202  0.0087736 0.0000
                      *** Initiating the SOSCF procedure ***
                           *** Shutting down DIIS ***
                      *** Re-Reading the Fockian *** 
                      *** Removing any level shift *** 
ITER      Energy       Delta-E        Grad      Rot      Max-DP    RMS-DP
  5   -271.18825945  -0.0006526125  0.000860  0.000860  0.002549  0.000124
               *** Restarting incremental Fock matrix formation ***
  6   -271.18830337  -0.0000439212  0.000401  0.001221  0.001478  0.000082
  7   -271.18830313   0.0000002445  0.000425  0.000760  0.000922  0.000027
  8   -271.18830761  -0.0000044805  0.000116  0.000325  0.000372  0.000017
  9   -271.18830737   0.0000002336  0.000136  0.000199  0.000209  0.000010
 10   -271.18830787  -0.0000004956  0.000012  0.000030  0.000053  0.000002
 11   -271.18830787   0.0000000024  0.000016  0.000017  0.000027  0.000001
                 **** Energy Check signals convergence ****
              ***Rediagonalizing the Fockian in SOSCF/NRSCF***

               *****************************************************
               *                     SUCCESS                       *
               *           SCF CONVERGED AFTER  12 CYCLES          *
               *****************************************************

Setting up the final grid:

General Integration Accuracy     IntAcc      ...  4.670
Radial Grid Type                 RadialGrid  ... Gauss-Chebyshev
Angular Grid (max. acc.)         AngularGrid ... Lebedev-302
Angular grid pruning method      GridPruning ... 3 (G Style)
Weight generation scheme         WeightScheme... Becke
Basis function cutoff            BFCut       ...    1.0000e-11
Integration weight cutoff        WCut        ...    1.0000e-14
Grids for H and He will be reduced by one unit

# of grid points (after initial pruning)     ...  70636 (   0.1 sec)
# of grid points (after weights+screening)   ...  64786 (   0.3 sec)
nearest neighbour list constructed           ...    0.0 sec
Grid point re-assignment to atoms done       ...    0.0 sec
Grid point division into batches done        ...    0.4 sec
Reduced shell lists constructed in    2.0 sec

Total number of grid points                  ...    64786
Total number of batches                      ...     1018
Average number of points per batch           ...       63
Average number of grid points per atom       ...     4319
Average number of shells per batch           ...    45.49 (68.92%)
Average number of basis functions per batch  ...    93.35 (67.64%)
Average number of large shells per batch     ...    36.25 (79.70%)
Average number of large basis fcns per batch ...    73.25 (78.47%)
Maximum spatial batch extension              ...  18.38, 19.09, 17.71 au
Average spatial batch extension              ...   2.56,  2.51,  2.70 au

Final grid set up in    2.4 sec
Final integration                            ... done (   1.4 sec)
Change in XC energy                          ...    -0.000656516
Integrated number of electrons               ...    49.999866254
Previous integrated no of electrons          ...    49.999321534

----------------
TOTAL SCF ENERGY
----------------

Total Energy       :         -271.18896439 Eh           -7379.42688 eV

Components:
Nuclear Repulsion  :          268.36219025 Eh            7302.50645 eV
Electronic Energy  :         -539.55115464 Eh          -14681.93333 eV
One Electron Energy:         -895.48863716 Eh          -24367.48464 eV
Two Electron Energy:          355.93748252 Eh            9685.55130 eV

Virial components:
Potential Energy   :         -539.30771251 Eh          -14675.30894 eV
Kinetic Energy     :          268.11874812 Eh            7295.88205 eV
Virial Ratio       :            2.01145096


DFT components:
N(Alpha)           :       24.999933127038 electrons
N(Beta)            :       24.999933127038 electrons
N(Total)           :       49.999866254077 electrons
E(X)               :      -30.972670105446 Eh       
E(C)               :       -1.936318731733 Eh       
E(XC)              :      -32.908988837179 Eh       
DFET-embed. en.    :        0.000000000000 Eh       

---------------
SCF CONVERGENCE
---------------

  Last Energy change         ...   -6.5446e-09  Tolerance :   1.0000e-08
  Last MAX-Density change    ...    3.8171e-06  Tolerance :   1.0000e-07
  Last RMS-Density change    ...    1.9448e-07  Tolerance :   5.0000e-09
  Last Orbital Gradient      ...    1.2611e-06  Tolerance :   1.0000e-05
  Last Orbital Rotation      ...    1.1753e-06  Tolerance :   1.0000e-05

             **** THE GBW FILE WAS UPDATED (toluol_optfreq.gbw) ****
             **** DENSITY FILE WAS UPDATED (toluol_optfreq.scfp) ****
             **** ENERGY FILE WAS UPDATED (toluol_optfreq.en.tmp) ****
             **** THE GBW FILE WAS UPDATED (toluol_optfreq.gbw) ****
             **** DENSITY FILE WAS UPDATED (toluol_optfreq.scfp) ****
----------------
ORBITAL ENERGIES
----------------

  NO   OCC          E(Eh)            E(eV) 
   0   2.0000     -10.190988      -277.3109 
   1   2.0000     -10.185635      -277.1652 
   2   2.0000     -10.183456      -277.1059 
   3   2.0000     -10.183215      -277.0994 
   4   2.0000     -10.181875      -277.0629 
   5   2.0000     -10.181191      -277.0443 
   6   2.0000     -10.180636      -277.0292 
   7   2.0000      -0.842006       -22.9121 
   8   2.0000      -0.758660       -20.6442 
   9   2.0000      -0.731135       -19.8952 
  10   2.0000      -0.670851       -18.2548 
  11   2.0000      -0.595683       -16.2093 
  12   2.0000      -0.572738       -15.5850 
  13   2.0000      -0.504563       -13.7299 
  14   2.0000      -0.455719       -12.4007 
  15   2.0000      -0.448261       -12.1978 
  16   2.0000      -0.416919       -11.3450 
  17   2.0000      -0.416802       -11.3418 
  18   2.0000      -0.402949       -10.9648 
  19   2.0000      -0.378789       -10.3074 
  20   2.0000      -0.350585        -9.5399 
  21   2.0000      -0.338459        -9.2099 
  22   2.0000      -0.337369        -9.1803 
  23   2.0000      -0.249133        -6.7792 
  24   2.0000      -0.239577        -6.5192 
  25   0.0000      -0.005772        -0.1571 
  26   0.0000      -0.000151        -0.0041 
  27   0.0000       0.066124         1.7993 
  28   0.0000       0.081885         2.2282 
  29   0.0000       0.098489         2.6800 
  30   0.0000       0.123451         3.3593 
  31   0.0000       0.124839         3.3970 
  32   0.0000       0.134562         3.6616 
  33   0.0000       0.153437         4.1752 
  34   0.0000       0.167811         4.5664 
  35   0.0000       0.175907         4.7867 
  36   0.0000       0.231967         6.3121 
  37   0.0000       0.292335         7.9548 
  38   0.0000       0.299645         8.1538 
  39   0.0000       0.306534         8.3412 
  40   0.0000       0.328405         8.9363 
  41   0.0000       0.368510        10.0277 
  42   0.0000       0.392776        10.6880 
  43   0.0000       0.423569        11.5259 
  44   0.0000       0.426297        11.6001 
  45   0.0000       0.440855        11.9963 
  46   0.0000       0.447412        12.1747 
  47   0.0000       0.460550        12.5322 
  48   0.0000       0.487944        13.2776 
  49   0.0000       0.493838        13.4380 
  50   0.0000       0.507702        13.8153 
  51   0.0000       0.544743        14.8232 
  52   0.0000       0.544936        14.8285 
  53   0.0000       0.579123        15.7587 
  54   0.0000       0.602495        16.3947 
  55   0.0000       0.602710        16.4006 
  56   0.0000       0.633797        17.2465 
  57   0.0000       0.640267        17.4226 
  58   0.0000       0.645580        17.5671 
  59   0.0000       0.650278        17.6950 
  60   0.0000       0.671449        18.2711 
  61   0.0000       0.676453        18.4072 
  62   0.0000       0.679955        18.5025 
  63   0.0000       0.689002        18.7487 
  64   0.0000       0.700891        19.0722 
  65   0.0000       0.732122        19.9221 
  66   0.0000       0.738735        20.1020 
  67   0.0000       0.743275        20.2255 
  68   0.0000       0.753270        20.4975 
  69   0.0000       0.790031        21.4978 
  70   0.0000       0.819049        22.2875 
  71   0.0000       0.849402        23.1134 
  72   0.0000       0.918575        24.9957 
  73   0.0000       0.965018        26.2595 
  74   0.0000       1.057941        28.7881 
  75   0.0000       1.092279        29.7224 
  76   0.0000       1.130375        30.7591 
  77   0.0000       1.215390        33.0724 
  78   0.0000       1.251425        34.0530 
  79   0.0000       1.258676        34.2503 
  80   0.0000       1.274684        34.6859 
  81   0.0000       1.282095        34.8876 
  82   0.0000       1.297609        35.3097 
  83   0.0000       1.312463        35.7139 
  84   0.0000       1.468973        39.9728 
  85   0.0000       1.506113        40.9834 
  86   0.0000       1.516391        41.2631 
  87   0.0000       1.542064        41.9617 
  88   0.0000       1.659955        45.1697 
  89   0.0000       1.686490        45.8917 
  90   0.0000       1.687633        45.9228 
  91   0.0000       1.728711        47.0406 
  92   0.0000       1.744127        47.4601 
  93   0.0000       1.748367        47.5755 
  94   0.0000       1.758532        47.8521 
  95   0.0000       1.769093        48.1395 
  96   0.0000       1.771526        48.2057 
  97   0.0000       1.788912        48.6788 
  98   0.0000       1.796439        48.8836 
  99   0.0000       1.804465        49.1020 
 100   0.0000       1.831614        49.8408 
 101   0.0000       1.878756        51.1236 
 102   0.0000       1.925220        52.3879 
 103   0.0000       1.958485        53.2931 
 104   0.0000       1.993765        54.2531 
 105   0.0000       2.002835        54.4999 
 106   0.0000       2.031966        55.2926 
 107   0.0000       2.033837        55.3435 
 108   0.0000       2.048841        55.7518 
 109   0.0000       2.111678        57.4617 
 110   0.0000       2.140197        58.2377 
 111   0.0000       2.155336        58.6497 
 112   0.0000       2.170162        59.0531 
 113   0.0000       2.256933        61.4143 
 114   0.0000       2.296392        62.4880 
 115   0.0000       2.307295        62.7847 
 116   0.0000       2.313516        62.9540 
 117   0.0000       2.322557        63.2000 
 118   0.0000       2.358223        64.1705 
 119   0.0000       2.445922        66.5569 
 120   0.0000       2.468409        67.1688 
 121   0.0000       2.479013        67.4574 
 122   0.0000       2.597411        70.6791 
 123   0.0000       2.603098        70.8339 
 124   0.0000       2.619716        71.2861 
 125   0.0000       2.653684        72.2104 
 126   0.0000       2.730447        74.2992 
 127   0.0000       2.745399        74.7061 
 128   0.0000       2.747275        74.7572 
 129   0.0000       2.858537        77.7847 
 130   0.0000       2.878438        78.3263 
 131   0.0000       2.904820        79.0442 
 132   0.0000       2.907644        79.1210 
 133   0.0000       2.962703        80.6192 
 134   0.0000       3.088043        84.0299 
 135   0.0000       3.137167        85.3667 
 136   0.0000       3.259791        88.7034 
 137   0.0000       3.634768        98.9071 

                    ********************************
                    * MULLIKEN POPULATION ANALYSIS *
                    ********************************

-----------------------
MULLIKEN ATOMIC CHARGES
-----------------------
   0 C :   -0.042728
   1 C :   -0.007213
   2 C :    0.029195
   3 C :    0.012246
   4 C :    0.027125
   5 C :   -0.002542
   6 C :    0.067244
   7 H :    0.007263
   8 H :    0.028270
   9 H :    0.028270
  10 H :   -0.037584
  11 H :   -0.025686
  12 H :   -0.020767
  13 H :   -0.026820
  14 H :   -0.036273
Sum of atomic charges:    0.0000000

--------------------------------
MULLIKEN REDUCED ORBITAL CHARGES
--------------------------------
  0 C s       :     3.076800  s :     3.076800
      pz      :     0.970927  p :     2.923005
      px      :     0.968610
      py      :     0.983469
      dz2     :     0.002966  d :     0.042922
      dxz     :     0.006406
      dyz     :     0.006181
      dx2y2   :     0.013566
      dxy     :     0.013803
  1 C s       :     3.213768  s :     3.213768
      pz      :     1.003535  p :     2.759594
      px      :     0.850154
      py      :     0.905904
      dz2     :     0.002530  d :     0.033851
      dxz     :     0.003045
      dyz     :     0.005220
      dx2y2   :     0.010943
      dxy     :     0.012114
  2 C s       :     3.156408  s :     3.156408
      pz      :     0.982592  p :     2.779257
      px      :     0.871413
      py      :     0.925252
      dz2     :     0.002497  d :     0.035140
      dxz     :     0.003451
      dyz     :     0.005463
      dx2y2   :     0.011000
      dxy     :     0.012730
  3 C s       :     3.155015  s :     3.155015
      pz      :     0.999720  p :     2.797763
      px      :     0.964616
      py      :     0.833428
      dz2     :     0.002505  d :     0.034976
      dxz     :     0.006284
      dyz     :     0.002276
      dx2y2   :     0.013286
      dxy     :     0.010625
  4 C s       :     3.158232  s :     3.158232
      pz      :     0.982336  p :     2.779653
      px      :     0.862911
      py      :     0.934406
      dz2     :     0.002502  d :     0.034989
      dxz     :     0.003242
      dyz     :     0.005599
      dx2y2   :     0.011201
      dxy     :     0.012445
  5 C s       :     3.207018  s :     3.207018
      pz      :     1.006242  p :     2.761626
      px      :     0.862415
      py      :     0.892969
      dz2     :     0.002524  d :     0.033898
      dxz     :     0.003208
      dyz     :     0.005047
      dx2y2   :     0.010881
      dxy     :     0.012238
  6 C s       :     2.957382  s :     2.957382
      pz      :     0.999603  p :     2.947496
      px      :     0.991323
      py      :     0.956571
      dz2     :     0.005372  d :     0.027878
      dxz     :     0.005166
      dyz     :     0.005295
      dx2y2   :     0.006732
      dxy     :     0.005313
  7 H s       :     0.970337  s :     0.970337
      pz      :     0.004774  p :     0.022401
      px      :     0.012268
      py      :     0.005359
  8 H s       :     0.948712  s :     0.948712
      pz      :     0.010858  p :     0.023018
      px      :     0.006973
      py      :     0.005188
  9 H s       :     0.948712  s :     0.948712
      pz      :     0.010858  p :     0.023018
      px      :     0.006973
      py      :     0.005188
 10 H s       :     1.014401  s :     1.014401
      pz      :     0.004981  p :     0.023183
      px      :     0.012388
      py      :     0.005814
 11 H s       :     1.002526  s :     1.002526
      pz      :     0.004835  p :     0.023160
      px      :     0.011674
      py      :     0.006651
 12 H s       :     0.997663  s :     0.997663
      pz      :     0.004942  p :     0.023103
      px      :     0.003424
      py      :     0.014738
 13 H s       :     1.003657  s :     1.003657
      pz      :     0.004855  p :     0.023164
      px      :     0.012180
      py      :     0.006129
 14 H s       :     1.013153  s :     1.013153
      pz      :     0.004968  p :     0.023120
      px      :     0.011817
      py      :     0.006335


                     *******************************
                     * LOEWDIN POPULATION ANALYSIS *
                     *******************************

----------------------
LOEWDIN ATOMIC CHARGES
----------------------
   0 C :   -0.024280
   1 C :   -0.028999
   2 C :   -0.020566
   3 C :   -0.034579
   4 C :   -0.021266
   5 C :   -0.031498
   6 C :   -0.047499
   7 H :    0.027412
   8 H :    0.034920
   9 H :    0.034920
  10 H :    0.021024
  11 H :    0.023110
  12 H :    0.023374
  13 H :    0.023031
  14 H :    0.020897

-------------------------------
LOEWDIN REDUCED ORBITAL CHARGES
-------------------------------
  0 C s       :     2.858464  s :     2.858464
      pz      :     0.945652  p :     3.059898
      px      :     1.078998
      py      :     1.035248
      dz2     :     0.007004  d :     0.105918
      dxz     :     0.013426
      dyz     :     0.010861
      dx2y2   :     0.037587
      dxy     :     0.037040
  1 C s       :     2.860542  s :     2.860542
      pz      :     0.987272  p :     3.079351
      px      :     1.037967
      py      :     1.054112
      dz2     :     0.006129  d :     0.089106
      dxz     :     0.005831
      dyz     :     0.010870
      dx2y2   :     0.031906
      dxy     :     0.034371
  2 C s       :     2.860238  s :     2.860238
      pz      :     0.963606  p :     3.069379
      px      :     1.046818
      py      :     1.058955
      dz2     :     0.006138  d :     0.090950
      dxz     :     0.006695
      dyz     :     0.011528
      dx2y2   :     0.031447
      dxy     :     0.035141
  3 C s       :     2.858829  s :     2.858829
      pz      :     0.980450  p :     3.085078
      px      :     1.067542
      py      :     1.037086
      dz2     :     0.006182  d :     0.090672
      dxz     :     0.013520
      dyz     :     0.003855
      dx2y2   :     0.036493
      dxy     :     0.030621
  4 C s       :     2.860897  s :     2.860897
      pz      :     0.964162  p :     3.069822
      px      :     1.045307
      py      :     1.060354
      dz2     :     0.006134  d :     0.090546
      dxz     :     0.006187
      dyz     :     0.011881
      dx2y2   :     0.031886
      dxy     :     0.034459
  5 C s       :     2.862038  s :     2.862038
      pz      :     0.989113  p :     3.080562
      px      :     1.037208
      py      :     1.054241
      dz2     :     0.006116  d :     0.088898
      dxz     :     0.006225
      dyz     :     0.010501
      dx2y2   :     0.031463
      dxy     :     0.034593
  6 C s       :     2.842312  s :     2.842312
      pz      :     1.059966  p :     3.133838
      px      :     1.057646
      py      :     1.016226
      dz2     :     0.014142  d :     0.071349
      dxz     :     0.013052
      dyz     :     0.012431
      dx2y2   :     0.018354
      dxy     :     0.013369
  7 H s       :     0.910637  s :     0.910637
      pz      :     0.011461  p :     0.061951
      px      :     0.034624
      py      :     0.015866
  8 H s       :     0.902262  s :     0.902262
      pz      :     0.029952  p :     0.062818
      px      :     0.018074
      py      :     0.014792
  9 H s       :     0.902262  s :     0.902262
      pz      :     0.029952  p :     0.062818
      px      :     0.018074
      py      :     0.014792
 10 H s       :     0.910326  s :     0.910326
      pz      :     0.015158  p :     0.068650
      px      :     0.035698
      py      :     0.017795
 11 H s       :     0.908760  s :     0.908760
      pz      :     0.014602  p :     0.068130
      px      :     0.033478
      py      :     0.020050
 12 H s       :     0.908320  s :     0.908320
      pz      :     0.015038  p :     0.068306
      px      :     0.011530
      py      :     0.041737
 13 H s       :     0.908854  s :     0.908854
      pz      :     0.014622  p :     0.068115
      px      :     0.034802
      py      :     0.018692
 14 H s       :     0.910445  s :     0.910445
      pz      :     0.015242  p :     0.068658
      px      :     0.034336
      py      :     0.019080


                      *****************************
                      * MAYER POPULATION ANALYSIS *
                      *****************************

  NA   - Mulliken gross atomic population
  ZA   - Total nuclear charge
  QA   - Mulliken gross atomic charge
  VA   - Mayer's total valence
  BVA  - Mayer's bonded valence
  FA   - Mayer's free valence

  ATOM       NA         ZA         QA         VA         BVA        FA
  0 C      6.0427     6.0000    -0.0427     3.9622     3.9622     0.0000
  1 C      6.0072     6.0000    -0.0072     3.8571     3.8571     0.0000
  2 C      5.9708     6.0000     0.0292     3.8480     3.8480    -0.0000
  3 C      5.9878     6.0000     0.0122     3.8379     3.8379    -0.0000
  4 C      5.9729     6.0000     0.0271     3.8481     3.8481     0.0000
  5 C      6.0025     6.0000    -0.0025     3.8537     3.8537     0.0000
  6 C      5.9328     6.0000     0.0672     3.9107     3.9107    -0.0000
  7 H      0.9927     1.0000     0.0073     0.9948     0.9948    -0.0000
  8 H      0.9717     1.0000     0.0283     0.9872     0.9872     0.0000
  9 H      0.9717     1.0000     0.0283     0.9872     0.9872     0.0000
 10 H      1.0376     1.0000    -0.0376     0.9854     0.9854     0.0000
 11 H      1.0257     1.0000    -0.0257     0.9764     0.9764    -0.0000
 12 H      1.0208     1.0000    -0.0208     0.9768     0.9768     0.0000
 13 H      1.0268     1.0000    -0.0268     0.9766     0.9766    -0.0000
 14 H      1.0363     1.0000    -0.0363     0.9854     0.9854    -0.0000

  Mayer bond orders larger than 0.100000
B(  0-C ,  1-C ) :   1.3844 B(  0-C ,  5-C ) :   1.3903 B(  0-C ,  6-C ) :   1.0590 
B(  1-C ,  2-C ) :   1.3880 B(  1-C , 10-H ) :   0.9925 B(  2-C ,  3-C ) :   1.3812 
B(  2-C , 11-H ) :   0.9854 B(  3-C ,  4-C ) :   1.3923 B(  3-C , 12-H ) :   0.9879 
B(  4-C ,  5-C ) :   1.3789 B(  4-C , 13-H ) :   0.9842 B(  5-C , 14-H ) :   0.9875 
B(  6-C ,  7-H ) :   0.9611 B(  6-C ,  8-H ) :   0.9571 B(  6-C ,  9-H ) :   0.9571 


-------
TIMINGS
-------

Total SCF time: 0 days 0 hours 1 min 26 sec 

Total time                  ....      86.044 sec
Sum of individual times     ....      84.882 sec  ( 98.6%)

Fock matrix formation       ....      80.525 sec  ( 93.6%)
  XC integration            ....       7.096 sec  (  8.8% of F)
    Basis function eval.    ....       2.193 sec  ( 30.9% of XC)
    Density eval.           ....       1.669 sec  ( 23.5% of XC)
    XC-Functional eval.     ....       0.418 sec  (  5.9% of XC)
    XC-Potential eval.      ....       2.200 sec  ( 31.0% of XC)
Diagonalization             ....       0.042 sec  (  0.0%)
Density matrix formation    ....       0.005 sec  (  0.0%)
Population analysis         ....       0.036 sec  (  0.0%)
Initial guess               ....       1.514 sec  (  1.8%)
Orbital Transformation      ....       0.000 sec  (  0.0%)
Orbital Orthonormalization  ....       0.000 sec  (  0.0%)
DIIS solution               ....       0.070 sec  (  0.1%)
SOSCF solution              ....       0.046 sec  (  0.1%)
Grid generation             ....       2.644 sec  (  3.1%)

-------------------------   --------------------
FINAL SINGLE POINT ENERGY      -271.188964389169
-------------------------   --------------------

------------------------------------------------------------------------------
                         ORCA SCF GRADIENT CALCULATION
------------------------------------------------------------------------------

Gradient of the Kohn-Sham DFT energy:
Kohn-Sham wavefunction type      ... RKS
Hartree-Fock exchange scaling    ...    0.200
Number of operators              ...    1
Number of atoms                  ...   15
Basis set dimensions             ...  138
Integral neglect threshold       ... 2.5e-11
Integral primitive cutoff        ... 2.5e-12

Nuclear repulsion gradient       ... done
One Electron Gradient            ... done
Pre-screening matrix             ... done
Starting the two electron gradient:
Two electron gradient done
Exchange-correlation gradient    ... done

------------------
CARTESIAN GRADIENT
------------------

   1   C   :   -0.003897192   -0.001708935    0.000000000
   2   C   :   -0.009403448    0.011431221   -0.000000000
   3   C   :   -0.005148791   -0.007740345    0.000000000
   4   C   :   -0.001216560   -0.003694694   -0.000000000
   5   C   :    0.007178417   -0.005519380    0.000000000
   6   C   :    0.010786484    0.009845207    0.000000000
   7   C   :   -0.002038339   -0.004821594    0.000000000
   8   H   :    0.006936351    0.002117124    0.000000000
   9   H   :   -0.001968112   -0.001182875    0.005383613
  10   H   :   -0.001968111   -0.001182878   -0.005383611
  11   H   :    0.006444381   -0.005434135   -0.000000000
  12   H   :    0.007223622    0.003604164    0.000000000
  13   H   :   -0.000322052    0.007447188   -0.000000001
  14   H   :   -0.007309214    0.002878900   -0.000000000
  15   H   :   -0.005297435   -0.006038967    0.000000000

Difference to translation invariance:
           :    0.0000000000    0.0000000000    0.0000000000

Norm of the cartesian gradient     ...    0.0331749710
RMS gradient                       ...    0.0049454327
MAX gradient                       ...    0.0114312210

-------
TIMINGS
-------

Total SCF gradient time            ...       27.845 sec

One electron gradient       ....       0.188 sec  (  0.7%)
Prescreening matrices       ....       0.155 sec  (  0.6%)
Two electron gradient       ....      19.054 sec  ( 68.4%)
XC gradient                 ....       8.124 sec  ( 29.2%)
------------------------------------------------------------------------------
                         ORCA GEOMETRY RELAXATION STEP
------------------------------------------------------------------------------

Reading the OPT-File                    .... done
Getting information on internals        .... done
Copying old internal coords+grads       .... done
Making the new internal coordinates     .... (new redundants).... done
Validating the new internal coordinates .... (new redundants).... done
Calculating the B-matrix                .... done
Calculating the G,G- and P matrices     .... done
Transforming gradient to internals      .... done
Projecting the internal gradient        .... done
Number of atoms                         ....  15
Number of internal coordinates          ....  69
Current Energy                          ....  -271.188964389 Eh
Current gradient norm                   ....     0.033174971 Eh/bohr
Maximum allowed component of the step   ....  0.300
Current trust radius                    ....  0.300
Evaluating the initial hessian          ....  (Almloef) done
Projecting the Hessian                  .... done
Forming the augmented Hessian           .... done
Diagonalizing the augmented Hessian     .... done
Last element of RFO vector              ....  0.997819323
Lowest eigenvalues of augmented Hessian:
 -0.001590920  0.012351890  0.019298407  0.024014284  0.024231407
Length of the computed step             ....  0.066148782
The final length of the internal step   ....  0.066148782
Converting the step to cartesian space:
 Initial RMS(Int)=    0.0079633776
Transforming coordinates:
 Iter   0:  RMS(Cart)=    0.0123478454 RMS(Int)=    1.8528273903
 Iter   1:  RMS(Cart)=    0.0000768132 RMS(Int)=    0.0000442452
 Iter   2:  RMS(Cart)=    0.0000006142 RMS(Int)=    0.0000005761
 Iter   3:  RMS(Cart)=    0.0000000058 RMS(Int)=    0.0000000038
done
Storing new coordinates                 .... done

                                .--------------------.
          ----------------------|Geometry convergence|-------------------------
          Item                value                   Tolerance       Converged
          ---------------------------------------------------------------------
          RMS gradient        0.0029143404            0.0001000000      NO
          MAX gradient        0.0082251518            0.0003000000      NO
          RMS step            0.0079633776            0.0020000000      NO
          MAX step            0.0221249539            0.0040000000      NO
          ........................................................
          Max(Bonds)      0.0117      Max(Angles)    0.76
          Max(Dihed)        0.08      Max(Improp)    0.00
          ---------------------------------------------------------------------

The optimization has not yet converged - more geometry cycles are needed


    ---------------------------------------------------------------------------
                         Redundant Internal Coordinates
                            (Angstroem and degrees)

        Definition                    Value    dE/dq     Step     New-Value
    ----------------------------------------------------------------------------
     1. B(C   1,C   0)                1.4047 -0.000277  0.0002    1.4048   
     2. B(C   2,C   1)                1.4005  0.001882 -0.0016    1.3989   
     3. B(C   3,C   2)                1.3958 -0.002287  0.0021    1.3979   
     4. B(C   4,C   3)                1.3963 -0.000628  0.0006    1.3969   
     5. B(C   5,C   4)                1.4016  0.001154 -0.0011    1.4006   
     6. B(C   5,C   0)                1.4069  0.003272 -0.0031    1.4039   
     7. B(C   6,C   0)                1.5058 -0.005104  0.0066    1.5124   
     8. B(H   7,C   6)                1.1112  0.007199 -0.0114    1.0998   
     9. B(H   8,C   6)                1.1110  0.004941 -0.0078    1.1032   
    10. B(H   9,C   6)                1.1110  0.004941 -0.0078    1.1032   
    11. B(H  10,C   1)                1.0825 -0.008225  0.0117    1.0942   
    12. B(H  11,C   2)                1.0822 -0.008038  0.0114    1.0936   
    13. B(H  12,C   3)                1.0832 -0.007453  0.0106    1.0939   
    14. B(H  13,C   4)                1.0826 -0.007790  0.0111    1.0936   
    15. B(H  14,C   5)                1.0828 -0.007623  0.0109    1.0937   
    16. A(C   5,C   0,C   6)          121.05 -0.001368    0.20    121.25   
    17. A(C   1,C   0,C   6)          119.73 -0.002435    0.35    120.09   
    18. A(C   1,C   0,C   5)          119.22  0.003803   -0.55    118.67   
    19. A(C   2,C   1,H  10)          119.16 -0.000434    0.11    119.26   
    20. A(C   0,C   1,C   2)          120.31 -0.002905    0.40    120.71   
    21. A(C   0,C   1,H  10)          120.53  0.003339   -0.51    120.02   
    22. A(C   3,C   2,H  11)          119.70 -0.000775    0.12    119.81   
    23. A(C   1,C   2,C   3)          120.10  0.000012    0.02    120.12   
    24. A(C   1,C   2,H  11)          120.20  0.000763   -0.13    120.07   
    25. A(C   2,C   3,C   4)          120.07  0.002804   -0.37    119.71   
    26. A(C   4,C   3,H  12)          120.00 -0.001269    0.16    120.16   
    27. A(C   2,C   3,H  12)          119.92 -0.001535    0.21    120.13   
    28. A(C   3,C   4,H  13)          119.58 -0.000863    0.14    119.72   
    29. A(C   5,C   4,H  13)          120.34  0.001218   -0.19    120.14   
    30. A(C   3,C   4,C   5)          120.08 -0.000354    0.05    120.14   
    31. A(C   0,C   5,C   4)          120.21 -0.003360    0.45    120.66   
    32. A(C   0,C   5,H  14)          120.84  0.004273   -0.65    120.19   
    33. A(C   4,C   5,H  14)          118.95 -0.000913    0.20    119.15   
    34. A(H   8,C   6,H   9)          108.48  0.003723   -0.76    107.72   
    35. A(H   7,C   6,H   9)          108.21  0.001744   -0.30    107.91   
    36. A(C   0,C   6,H   9)          110.07 -0.003439    0.62    110.70   
    37. A(H   7,C   6,H   8)          108.21  0.001744   -0.30    107.91   
    38. A(C   0,C   6,H   8)          110.07 -0.003439    0.62    110.70   
    39. A(C   0,C   6,H   7)          111.70 -0.000037    0.05    111.76   
    40. D(C   2,C   1,C   0,C   5)      0.00 -0.000000   -0.00     -0.00   
    41. D(H  10,C   1,C   0,C   5)    180.00  0.000000   -0.00    180.00   
    42. D(C   2,C   1,C   0,C   6)    180.00 -0.000000    0.00    180.00   
    43. D(H  10,C   1,C   0,C   6)      0.00 -0.000000    0.00      0.00   
    44. D(H  11,C   2,C   1,C   0)    180.00  0.000000   -0.00    180.00   
    45. D(C   3,C   2,C   1,C   0)      0.00 -0.000000    0.00      0.00   
    46. D(C   3,C   2,C   1,H  10)    180.00 -0.000000    0.00    180.00   
    47. D(H  11,C   2,C   1,H  10)      0.00 -0.000000    0.00      0.00   
    48. D(H  12,C   3,C   2,H  11)      0.00  0.000000   -0.00     -0.00   
    49. D(H  12,C   3,C   2,C   1)    180.00  0.000000   -0.00    180.00   
    50. D(C   4,C   3,C   2,H  11)    180.00  0.000000    0.00    180.00   
    51. D(C   4,C   3,C   2,C   1)      0.00  0.000000   -0.00     -0.00   
    52. D(C   5,C   4,C   3,H  12)    180.00 -0.000000    0.00    180.00   
    53. D(C   5,C   4,C   3,C   2)      0.00 -0.000000    0.00      0.00   
    54. D(H  13,C   4,C   3,C   2)    180.00  0.000000   -0.00    180.00   
    55. D(H  13,C   4,C   3,H  12)      0.00  0.000000   -0.00     -0.00   
    56. D(H  14,C   5,C   4,H  13)      0.00 -0.000000    0.00      0.00   
    57. D(C   0,C   5,C   4,H  13)    180.00 -0.000000    0.00    180.00   
    58. D(C   0,C   5,C   4,C   3)      0.00 -0.000000    0.00      0.00   
    59. D(H  14,C   5,C   0,C   6)      0.00  0.000000   -0.00     -0.00   
    60. D(H  14,C   5,C   0,C   1)    180.00 -0.000000    0.00    180.00   
    61. D(H  14,C   5,C   4,C   3)    180.00  0.000000   -0.00    180.00   
    62. D(C   4,C   5,C   0,C   6)    180.00  0.000000   -0.00    180.00   
    63. D(C   4,C   5,C   0,C   1)      0.00  0.000000   -0.00     -0.00   
    64. D(H   9,C   6,C   0,C   5)    120.24 -0.000144    0.08    120.32   
    65. D(H   9,C   6,C   0,C   1)    -59.76 -0.000144    0.08    -59.68   
    66. D(H   8,C   6,C   0,C   5)   -120.24  0.000144   -0.08   -120.32   
    67. D(H   8,C   6,C   0,C   1)     59.76  0.000144   -0.08     59.68   
    68. D(H   7,C   6,C   0,C   5)      0.00  0.000000    0.00      0.00   
    69. D(H   7,C   6,C   0,C   1)    180.00  0.000000   -0.00    180.00   
    ----------------------------------------------------------------------------

         *************************************************************
         *                GEOMETRY OPTIMIZATION CYCLE   2            *
         *************************************************************
---------------------------------
CARTESIAN COORDINATES (ANGSTROEM)
---------------------------------
  C     -6.189680    1.044665   -0.000000
  C     -7.377621    0.294787   -0.000000
  C     -7.339814   -1.103553   -0.000000
  C     -6.112131   -1.772045    0.000000
  C     -4.923901   -1.037499   -0.000000
  C     -4.962650    0.362536   -0.000000
  C     -6.247096    2.555957    0.000000
  H     -5.241851    3.002116    0.000000
  H     -6.782449    2.925755    0.890893
  H     -6.782449    2.925755   -0.890893
  H     -8.346276    0.803693   -0.000000
  H     -8.271112   -1.676900    0.000000
  H     -6.082376   -2.865512    0.000000
  H     -3.963303   -1.560291    0.000000
  H     -4.022572    0.921515   -0.000000

----------------------------
CARTESIAN COORDINATES (A.U.)
----------------------------
  NO LB      ZA    FRAG     MASS         X           Y           Z
   0 C     6.0000    0    12.011  -11.696799    1.974130   -0.000000
   1 C     6.0000    0    12.011  -13.941684    0.557067   -0.000000
   2 C     6.0000    0    12.011  -13.870238   -2.085413   -0.000000
   3 C     6.0000    0    12.011  -11.550253   -3.348679    0.000000
   4 C     6.0000    0    12.011   -9.304825   -1.960588   -0.000000
   5 C     6.0000    0    12.011   -9.378049    0.685095   -0.000000
   6 C     6.0000    0    12.011  -11.805301    4.830060    0.000000
   7 H     1.0000    0     1.008   -9.905664    5.673177    0.000000
   8 H     1.0000    0     1.008  -12.816971    5.528875    1.683543
   9 H     1.0000    0     1.008  -12.816971    5.528875   -1.683543
  10 H     1.0000    0     1.008  -15.772175    1.518760   -0.000000
  11 H     1.0000    0     1.008  -15.630136   -3.168881    0.000000
  12 H     1.0000    0     1.008  -11.494026   -5.415033    0.000000
  13 H     1.0000    0     1.008   -7.489557   -2.948523    0.000000
  14 H     1.0000    0     1.008   -7.601559    1.741411   -0.000000

--------------------------------
INTERNAL COORDINATES (ANGSTROEM)
--------------------------------
 C      0   0   0     0.000000000000     0.00000000     0.00000000
 C      1   0   0     1.404821016690     0.00000000     0.00000000
 C      2   1   0     1.398850959230   120.71306114     0.00000000
 C      3   2   1     1.397886491962   120.11770060     0.00000000
 C      4   3   2     1.396942397724   119.70729860     0.00000000
 C      5   4   3     1.400571152322   120.13837163     0.00000000
 C      1   2   3     1.512383057288   120.08609235   180.00000148
 H      7   1   2     1.099806436457   111.75741154   180.00000000
 H      7   1   2     1.103196545051   110.69460398    59.68408941
 H      7   1   2     1.103196548041   110.69460500   300.31590926
 H      2   1   3     1.094201670877   120.02189593   180.00000000
 H      3   2   1     1.093637006125   120.06947215   180.00000000
 H      4   3   2     1.093872276022   120.12765218   179.99999915
 H      5   4   3     1.093645826733   119.71960349   180.00000000
 H      6   5   4     1.093711187174   119.15069309   179.99999879

---------------------------
INTERNAL COORDINATES (A.U.)
---------------------------
 C      0   0   0     0.000000000000     0.00000000     0.00000000
 C      1   0   0     2.654726988721     0.00000000     0.00000000
 C      2   1   0     2.643445215117   120.71306114     0.00000000
 C      3   2   1     2.641622636115   120.11770060     0.00000000
 C      4   3   2     2.639838556561   119.70729860     0.00000000
 C      5   4   3     2.646695908958   120.13837163     0.00000000
 C      1   2   3     2.857989787857   120.08609235   180.00000148
 H      7   1   2     2.078332965227   111.75741154   180.00000000
 H      7   1   2     2.084739342035   110.69460398    59.68408941
 H      7   1   2     2.084739347685   110.69460500   300.31590926
 H      2   1   3     2.067741493237   120.02189593   180.00000000
 H      3   2   1     2.066674431497   120.06947215   180.00000000
 H      4   3   2     2.067119027171   120.12765218   179.99999915
 H      5   4   3     2.066691100031   119.71960349   180.00000000
 H      6   5   4     2.066814613365   119.15069309   179.99999879


Diagonalization of the overlap matrix:
Smallest eigenvalue                        ... 3.042e-04
Time for diagonalization                   ...    0.011 sec
Threshold for overlap eigenvalues          ... 1.000e-08
Number of eigenvalues below threshold      ... 0
Time for construction of square roots      ...    0.005 sec
Total time needed                          ...    0.017 sec

-------------------
DFT GRID GENERATION
-------------------

General Integration Accuracy     IntAcc      ...  4.340
Radial Grid Type                 RadialGrid  ... Gauss-Chebyshev
Angular Grid (max. acc.)         AngularGrid ... Lebedev-110
Angular grid pruning method      GridPruning ... 3 (G Style)
Weight generation scheme         WeightScheme... Becke
Basis function cutoff            BFCut       ...    1.0000e-11
Integration weight cutoff        WCut        ...    1.0000e-14
Grids for H and He will be reduced by one unit

# of grid points (after initial pruning)     ...  17944 (   0.0 sec)
# of grid points (after weights+screening)   ...  16648 (   0.2 sec)
nearest neighbour list constructed           ...    0.0 sec
Grid point re-assignment to atoms done       ...    0.0 sec
Grid point division into batches done        ...    0.0 sec
Reduced shell lists constructed in    0.6 sec

Total number of grid points                  ...    16648
Total number of batches                      ...      268
Average number of points per batch           ...       62
Average number of grid points per atom       ...     1110
Average number of shells per batch           ...    49.54 (75.06%)
Average number of basis functions per batch  ...   102.54 (74.31%)
Average number of large shells per batch     ...    40.28 (81.31%)
Average number of large basis fcns per batch ...    82.57 (80.52%)
Maximum spatial batch extension              ...  20.39, 20.52, 25.60 au
Average spatial batch extension              ...   4.00,  3.79,  4.18 au

Time for grid setup =    0.765 sec

--------------
SCF ITERATIONS
--------------
ITER       Energy         Delta-E        Max-DP      RMS-DP      [F,P]     Damp
               ***  Starting incremental Fock matrix formation  ***
                      *** Initiating the SOSCF procedure ***
                      *** Re-Reading the Fockian *** 
                      *** Removing any level shift *** 
ITER      Energy       Delta-E        Grad      Rot      Max-DP    RMS-DP
  0   -271.18898352 -271.1889835247  0.002090  0.002090  0.011437  0.000500
               *** Restarting incremental Fock matrix formation ***
  1   -271.18914541  -0.0001618845  0.000381  0.000864  0.002068  0.000070
  2   -271.18915197  -0.0000065571  0.000329  0.000943  0.001014  0.000036
  3   -271.18915388  -0.0000019103  0.000214  0.000435  0.000471  0.000021
  4   -271.18915478  -0.0000009051  0.000080  0.000154  0.000336  0.000010
  5   -271.18915496  -0.0000001781  0.000054  0.000067  0.000147  0.000005
  6   -271.18915506  -0.0000000956  0.000013  0.000032  0.000061  0.000002
  7   -271.18915506  -0.0000000024  0.000012  0.000018  0.000033  0.000001
  8   -271.18915506  -0.0000000062  0.000003  0.000007  0.000007  0.000000
  9   -271.18915506   0.0000000006  0.000003  0.000006  0.000006  0.000000
                  ***Gradient check signals convergence***
              ***Rediagonalizing the Fockian in SOSCF/NRSCF***

               *****************************************************
               *                     SUCCESS                       *
               *           SCF CONVERGED AFTER  10 CYCLES          *
               *****************************************************

Setting up the final grid:

General Integration Accuracy     IntAcc      ...  4.670
Radial Grid Type                 RadialGrid  ... Gauss-Chebyshev
Angular Grid (max. acc.)         AngularGrid ... Lebedev-302
Angular grid pruning method      GridPruning ... 3 (G Style)
Weight generation scheme         WeightScheme... Becke
Basis function cutoff            BFCut       ...    1.0000e-11
Integration weight cutoff        WCut        ...    1.0000e-14
Grids for H and He will be reduced by one unit

# of grid points (after initial pruning)     ...  70636 (   0.0 sec)
# of grid points (after weights+screening)   ...  64802 (   0.2 sec)
nearest neighbour list constructed           ...    0.0 sec
Grid point re-assignment to atoms done       ...    0.0 sec
Grid point division into batches done        ...    0.3 sec
Reduced shell lists constructed in    1.5 sec

Total number of grid points                  ...    64802
Total number of batches                      ...     1020
Average number of points per batch           ...       63
Average number of grid points per atom       ...     4320
Average number of shells per batch           ...    45.45 (68.86%)
Average number of basis functions per batch  ...    93.28 (67.59%)
Average number of large shells per batch     ...    36.22 (79.69%)
Average number of large basis fcns per batch ...    73.19 (78.47%)
Maximum spatial batch extension              ...  20.20, 17.78, 17.66 au
Average spatial batch extension              ...   2.56,  2.52,  2.70 au

Final grid set up in    1.8 sec
Final integration                            ... done (   1.6 sec)
Change in XC energy                          ...    -0.000690400
Integrated number of electrons               ...    49.999868306
Previous integrated no of electrons          ...    49.999060710
Total Energy       :         -271.18984546 Eh           -7379.45086 eV
  Last Energy change         ...   -1.2874e-09  Tolerance :   1.0000e-08
  Last MAX-Density change    ...    2.7237e-06  Tolerance :   1.0000e-07
             **** THE GBW FILE WAS UPDATED (toluol_optfreq.gbw) ****
             **** DENSITY FILE WAS UPDATED (toluol_optfreq.scfp) ****
             **** ENERGY FILE WAS UPDATED (toluol_optfreq.en.tmp) ****
             **** THE GBW FILE WAS UPDATED (toluol_optfreq.gbw) ****
             **** DENSITY FILE WAS UPDATED (toluol_optfreq.scfp) ****
Total SCF time: 0 days 0 hours 1 min 3 sec 

-------------------------   --------------------
FINAL SINGLE POINT ENERGY      -271.189845464904
-------------------------   --------------------

------------------------------------------------------------------------------
                         ORCA SCF GRADIENT CALCULATION
------------------------------------------------------------------------------

Gradient of the Kohn-Sham DFT energy:
Kohn-Sham wavefunction type      ... RKS
Hartree-Fock exchange scaling    ...    0.200
Number of operators              ...    1
Number of atoms                  ...   15
Basis set dimensions             ...  138
Integral neglect threshold       ... 2.5e-11
Integral primitive cutoff        ... 2.5e-12

Nuclear repulsion gradient       ... done
One Electron Gradient            ... done
Pre-screening matrix             ... done
Starting the two electron gradient:
Two electron gradient done
Exchange-correlation gradient    ... done

------------------
CARTESIAN GRADIENT
------------------

   1   C   :   -0.001379216   -0.003716126   -0.000000002
   2   C   :   -0.000859896    0.004622095    0.000000000
   3   C   :    0.000368684   -0.001848546   -0.000000001
   4   C   :   -0.000720724    0.001411854    0.000000001
   5   C   :    0.000695836   -0.000526064   -0.000000000
   6   C   :    0.001418604    0.003747994   -0.000000001
   7   C   :   -0.000308969    0.002373627    0.000000002
   8   H   :    0.000010785   -0.000089680    0.000000000
   9   H   :    0.000343216   -0.001217524    0.000691550
  10   H   :    0.000343214   -0.001217522   -0.000691551
  11   H   :   -0.000258357   -0.001080094   -0.000000000
  12   H   :    0.000318572   -0.000415184    0.000000000
  13   H   :   -0.000056891   -0.000049550    0.000000001
  14   H   :   -0.000399040   -0.000612985    0.000000001
  15   H   :    0.000484183   -0.001382294    0.000000000

Difference to translation invariance:
           :   -0.0000000000   -0.0000000000   -0.0000000000

Norm of the cartesian gradient     ...    0.0086480777
RMS gradient                       ...    0.0012891793
MAX gradient                       ...    0.0046220948

-------
TIMINGS
-------

Total SCF gradient time            ...       24.780 sec

One electron gradient       ....       0.148 sec  (  0.6%)
Prescreening matrices       ....       0.130 sec  (  0.5%)
Two electron gradient       ....      17.534 sec  ( 70.8%)
XC gradient                 ....       6.607 sec  ( 26.7%)
------------------------------------------------------------------------------
                         ORCA GEOMETRY RELAXATION STEP
------------------------------------------------------------------------------

Reading the OPT-File                    .... done
Getting information on internals        .... done
Copying old internal coords+grads       .... done
Making the new internal coordinates     .... (new redundants).... done
Validating the new internal coordinates .... (new redundants).... done
Calculating the B-matrix                .... done
Calculating the G,G- and P matrices     .... done
Transforming gradient to internals      .... done
Projecting the internal gradient        .... done
Number of atoms                         ....  15
Number of internal coordinates          ....  69
Current Energy                          ....  -271.189845465 Eh
Current gradient norm                   ....     0.008648078 Eh/bohr
Maximum allowed component of the step   ....  0.300
Current trust radius                    ....  0.300
Updating the Hessian (BFGS)             .... done
Forming the augmented Hessian           .... done
Diagonalizing the augmented Hessian     .... done
Last element of RFO vector              ....  0.999781957
Lowest eigenvalues of augmented Hessian:
 -0.000121159  0.012351890  0.019298407  0.024014284  0.024231407
Length of the computed step             ....  0.020886074
The final length of the internal step   ....  0.020886074
Converting the step to cartesian space:
 Initial RMS(Int)=    0.0025143878
Transforming coordinates:
 Iter   0:  RMS(Cart)=    0.0047560739 RMS(Int)=    2.3919690756
 Iter   1:  RMS(Cart)=    0.0000149863 RMS(Int)=    0.0000102660
 Iter   2:  RMS(Cart)=    0.0000000726 RMS(Int)=    0.0000000429
done
Storing new coordinates                 .... done

                                .--------------------.
          ----------------------|Geometry convergence|-------------------------
          Item                value                   Tolerance       Converged
          ---------------------------------------------------------------------
          Energy change      -0.0008810757            0.0000050000      NO
          RMS gradient        0.0007218833            0.0001000000      NO
          MAX gradient        0.0022498845            0.0003000000      NO
          RMS step            0.0025143878            0.0020000000      NO
          MAX step            0.0081726953            0.0040000000      NO
          ........................................................
          Max(Bonds)      0.0014      Max(Angles)    0.47
          Max(Dihed)        0.07      Max(Improp)    0.00
          ---------------------------------------------------------------------

The optimization has not yet converged - more geometry cycles are needed


    ---------------------------------------------------------------------------
                         Redundant Internal Coordinates
                            (Angstroem and degrees)

        Definition                    Value    dE/dq     Step     New-Value
    ----------------------------------------------------------------------------
     1. B(C   1,C   0)                1.4048 -0.000342  0.0003    1.4052   
     2. B(C   2,C   1)                1.3989  0.001317 -0.0014    1.3974   
     3. B(C   3,C   2)                1.3979 -0.000955  0.0011    1.3990   
     4. B(C   4,C   3)                1.3969 -0.000041  0.0001    1.3970   
     5. B(C   5,C   4)                1.4006  0.000729 -0.0008    1.3998   
     6. B(C   5,C   0)                1.4039  0.000944 -0.0012    1.4027   
     7. B(C   6,C   0)                1.5124 -0.000166  0.0006    1.5130   
     8. B(H   7,C   6)                1.0998 -0.000026 -0.0006    1.0992   
     9. B(H   8,C   6)                1.1032 -0.000016 -0.0004    1.1028   
    10. B(H   9,C   6)                1.1032 -0.000016 -0.0004    1.1028   
    11. B(H  10,C   1)                1.0942 -0.000273  0.0011    1.0953   
    12. B(H  11,C   2)                1.0936 -0.000053  0.0007    1.0944   
    13. B(H  12,C   3)                1.0939  0.000048  0.0005    1.0944   
    14. B(H  13,C   4)                1.0936 -0.000058  0.0007    1.0944   
    15. B(H  14,C   5)                1.0937 -0.000290  0.0011    1.0948   
    16. A(C   5,C   0,C   6)          121.25 -0.000627    0.11    121.36   
    17. A(C   1,C   0,C   6)          120.09 -0.001330    0.24    120.32   
    18. A(C   1,C   0,C   5)          118.67  0.001957   -0.35    118.31   
    19. A(C   2,C   1,H  10)          119.27 -0.000437    0.11    119.37   
    20. A(C   0,C   1,C   2)          120.71 -0.001350    0.24    120.95   
    21. A(C   0,C   1,H  10)          120.02  0.001787   -0.34    119.68   
    22. A(C   3,C   2,H  11)          119.81 -0.000482    0.09    119.91   
[...]
                 30         31         32         33         34         35    
      0      -0.006524   0.038346   0.000000  -0.130251   0.006167   0.316452
      1      -0.034268   0.011571   0.000000  -0.005480  -0.166473   0.005827
      2       0.000000   0.000000  -0.018902  -0.000000  -0.000000  -0.000000
      3      -0.005297  -0.021304  -0.000000   0.042383   0.105914  -0.186419
      4      -0.002068   0.042092   0.000000  -0.076872   0.075100  -0.109852
      5      -0.000000   0.000000   0.003649  -0.000000  -0.000000   0.000000
      6       0.015001   0.011184   0.000000   0.013036  -0.124068   0.206511
      7      -0.004206  -0.071982  -0.000000   0.106726   0.122305  -0.059312
      8       0.000000  -0.000000   0.000206   0.000000  -0.000000   0.000000
      9      -0.008292   0.027993   0.000000  -0.115707   0.014797  -0.374006
     10       0.000565   0.000340   0.000000  -0.002870  -0.116979  -0.021207
     11      -0.000000   0.000000  -0.000034  -0.000000   0.000000  -0.000000
     12      -0.003662   0.013727   0.000000   0.025542   0.105102   0.216752
     13       0.016275   0.068483   0.000000  -0.110919   0.127643   0.100640
     14      -0.000000  -0.000000  -0.000146   0.000000  -0.000000   0.000000
     15       0.010179  -0.025357  -0.000000   0.026948  -0.105988  -0.196291
     16      -0.016066  -0.034446  -0.000000   0.094206   0.063755   0.086388
     17       0.000000   0.000000   0.000644  -0.000000  -0.000000   0.000000
     18      -0.018960  -0.056676  -0.000000  -0.002169  -0.000550  -0.025746
     19       0.151163  -0.033470  -0.000000  -0.013344   0.044705   0.001675
     20       0.000000   0.000000  -0.052409   0.000000  -0.000000   0.000000
     21       0.226263  -0.217019   0.000000  -0.158469   0.015652   0.063594
     22      -0.426275   0.376945   0.000000   0.362605   0.008012  -0.199490
     23      -0.000000  -0.000000   0.713142   0.000000   0.000000  -0.000000
     24       0.012226   0.474826   0.363151   0.299168  -0.018388  -0.066443
     25      -0.531339  -0.042374   0.331969  -0.110911   0.023836   0.096807
     26       0.290018   0.314661   0.044962   0.218154  -0.002479  -0.064657
     27       0.012226   0.474826  -0.363151   0.299168  -0.018388  -0.066443
     28      -0.531339  -0.042374  -0.331969  -0.110911   0.023836   0.096807
     29      -0.290018  -0.314661   0.044962  -0.218154   0.002479   0.064657
     30       0.014222  -0.070844  -0.000000   0.154385  -0.145589   0.007309
     31       0.038814  -0.037690  -0.000000   0.099895  -0.431174   0.276790
     32       0.000000  -0.000000  -0.006443   0.000000   0.000000   0.000000
     33      -0.018776  -0.124638  -0.000000   0.211447   0.202626   0.060203
     34       0.052686   0.139622   0.000000  -0.190547  -0.437355   0.225074
     35      -0.000000  -0.000000  -0.004454  -0.000000   0.000000   0.000000
     36      -0.004967  -0.228080  -0.000000   0.474594  -0.018615   0.447649
     37       0.001822  -0.007593  -0.000000   0.013316  -0.143851  -0.000112
     38       0.000000  -0.000000   0.002853   0.000000   0.000000   0.000000
     39      -0.003624  -0.116846  -0.000000   0.201359  -0.185108   0.049833
     40       0.018215  -0.166232  -0.000000   0.184932  -0.439515  -0.262533
     41      -0.000000   0.000000  -0.002157   0.000000   0.000000   0.000000
     42      -0.028379  -0.048205  -0.000000   0.189139   0.151450   0.013657
     43       0.050059  -0.012828   0.000000  -0.146470  -0.391800  -0.282904
     44      -0.000000   0.000000   0.005411   0.000000   0.000000   0.000000
                 36         37         38         39         40         41    
      0      -0.026111  -0.000231  -0.000000   0.001059  -0.001414   0.002354
      1       0.238676   0.001127   0.000000  -0.000923  -0.002681  -0.001222
      2       0.000000  -0.000000   0.000132  -0.000000   0.000000  -0.000000
      3      -0.076208  -0.000415  -0.000000  -0.001351   0.063304  -0.024560
      4      -0.315494   0.001128   0.000000   0.000814  -0.032426   0.013577
      5      -0.000000   0.000000  -0.000347  -0.000000  -0.000000   0.000000
      6      -0.087834  -0.000029  -0.000000   0.000444  -0.032062   0.001964
      7       0.289282  -0.000504  -0.000000  -0.000160  -0.017155  -0.000248
      8      -0.000000   0.000000  -0.000071   0.000000   0.000000  -0.000000
      9       0.008615  -0.000208  -0.000000  -0.000184  -0.000272  -0.001266
     10      -0.141224  -0.000056   0.000000   0.000012   0.018872   0.017345
     11       0.000000  -0.000000  -0.000002  -0.000000  -0.000000  -0.000000
     12       0.063695   0.000237   0.000000   0.000503   0.014720   0.037328
     13       0.280284  -0.000113  -0.000000  -0.000008  -0.007672  -0.017916
     14      -0.000000   0.000000  -0.000010   0.000000   0.000000   0.000000
     15       0.109895   0.000390   0.000000  -0.003751  -0.012521  -0.057557
     16      -0.306858   0.000780   0.000000  -0.002412  -0.006347  -0.033624
     17       0.000000  -0.000000   0.000308  -0.000000  -0.000000  -0.000000
     18       0.002139   0.017738  -0.000000   0.091495   0.000818  -0.004094
     19      -0.036938  -0.049810  -0.000000   0.013524  -0.000449  -0.000835
     20      -0.000000  -0.000000   0.092480   0.000000   0.000000  -0.000000
     21      -0.020769   0.403467   0.000000  -0.825973  -0.001013   0.039093
     22       0.014063   0.165212   0.000000  -0.355430   0.001453   0.018633
     23       0.000000  -0.000000   0.016972   0.000000  -0.000000  -0.000000
     24       0.027029  -0.306487   0.351623  -0.133365  -0.003652   0.005101
     25      -0.038248   0.205804  -0.239871   0.103220   0.004553  -0.003645
     26       0.019056   0.516865  -0.560715   0.248363   0.007473  -0.009456
     27       0.027029  -0.306487  -0.351623  -0.133365  -0.003652   0.005101
     28      -0.038248   0.205804   0.239871   0.103220   0.004553  -0.003645
     29      -0.019056  -0.516865  -0.560715  -0.248363  -0.007473   0.009456
     30       0.259769   0.009801   0.000000   0.013782  -0.728071   0.283293
     31       0.298310  -0.006444  -0.000000  -0.008919   0.385412  -0.151111
     32      -0.000000  -0.000000   0.001890  -0.000000   0.000000  -0.000000
     33       0.239602   0.000359   0.000000  -0.004019   0.377316  -0.017175
     34      -0.226330  -0.000314   0.000000  -0.002235   0.226631  -0.009076
     35       0.000000   0.000000   0.000104  -0.000000  -0.000000   0.000000
     36       0.004436  -0.000102   0.000000  -0.000288   0.006513   0.006429
     37      -0.162056   0.001366  -0.000000   0.000289  -0.230441  -0.209426
     38       0.000000  -0.000000   0.000378   0.000000   0.000000   0.000000
     39      -0.215085  -0.000842  -0.000000  -0.007135  -0.176777  -0.437483
     40      -0.221026   0.000016   0.000000   0.003890   0.093559   0.230317
     41      -0.000000  -0.000000   0.000006  -0.000000  -0.000000  -0.000000
     42      -0.252804  -0.008009  -0.000000   0.039239   0.141209   0.661755
     43       0.281452  -0.006070  -0.000000   0.026695   0.084555   0.401080
     44      -0.000000  -0.000000  -0.000019   0.000000   0.000000   0.000000
                  42         43         44    
      0      -0.000286   0.002273  -0.000090
      1       0.002281  -0.000175   0.001117
      2       0.000000  -0.000000  -0.000000
      3      -0.027400  -0.019165  -0.012341
      4       0.015082   0.012925   0.008731
      5       0.000000   0.000000   0.000000
      6      -0.025641  -0.048461  -0.039720
      7      -0.019173  -0.030803  -0.021865
      8       0.000000   0.000000   0.000000
      9      -0.001341   0.004478   0.001665
     10       0.057457  -0.001517  -0.061144
     11      -0.000000   0.000000   0.000000
     12       0.017487  -0.049377   0.040582
     13      -0.013059   0.027850  -0.019337
     14       0.000000  -0.000000   0.000000
     15       0.035924  -0.024052   0.013802
     16       0.021853  -0.017158   0.010536
     17       0.000000  -0.000000   0.000000
     18       0.001364  -0.001190   0.000281
     19       0.000617  -0.000211   0.000321
     20      -0.000000  -0.000000  -0.000000
     21      -0.016589   0.009764  -0.005571
     22      -0.009398   0.004307  -0.003348
     23       0.000000   0.000000   0.000000
     24      -0.000269   0.001254   0.000950
     25      -0.001520  -0.000904  -0.001387
     26      -0.000219  -0.002612  -0.001583
     27      -0.000269   0.001255   0.000950
     28      -0.001520  -0.000904  -0.001387
     29       0.000219   0.002612   0.001583
     30       0.306957   0.218125   0.138285
     31      -0.163160  -0.118661  -0.075916
     32      -0.000000  -0.000000  -0.000000
     33       0.314271   0.552296   0.423772
     34       0.194588   0.337072   0.254775
     35      -0.000000  -0.000000  -0.000000
     36       0.018737  -0.005370  -0.019055
     37      -0.668828   0.018702   0.669739
     38       0.000000   0.000000  -0.000000
     39      -0.219412   0.562531  -0.433100
     40       0.120504  -0.300967   0.227794
     41      -0.000000   0.000000  -0.000000
     42      -0.404712   0.274646  -0.156019
     43      -0.245892   0.169652  -0.097458
     44      -0.000000   0.000000  -0.000000


-----------
IR SPECTRUM
-----------

 Mode    freq (cm**-1)   T**2         TX         TY         TZ
-------------------------------------------------------------------
   6:         8.00    0.335631  (  0.000000   0.000000   0.579337)
   7:       213.58    1.747008  ( -0.000000   0.000000   1.321744)
   8:       344.80    0.386867  ( -0.609434   0.124326  -0.000000)
   9:       420.24    0.004645  (  0.000001   0.000001   0.068156)
  10:       483.10    6.772675  ( -0.000000   0.000000   2.602436)
  11:       527.85    0.389775  (  0.055244   0.621871   0.000000)
  12:       634.52    0.104691  ( -0.322327  -0.028225  -0.000000)
  13:       721.17   21.834403  (  0.000001   0.000000  -4.672730)
  14:       752.12   30.028580  ( -0.000001  -0.000001  -5.479834)
  15:       800.46    0.605173  ( -0.136963   0.765777  -0.000000)
  16:       863.78    0.003573  ( -0.000001  -0.000000  -0.059772)
  17:       922.04    0.088967  (  0.000000   0.000000   0.298274)
  18:       989.51    1.978272  ( -0.125711   1.400881   0.000000)
  19:       999.88    0.000151  ( -0.000001  -0.000001   0.012284)
  20:      1014.06    0.358544  ( -0.040733  -0.597398   0.000000)
  21:      1022.37    0.055770  ( -0.000000   0.000000   0.236158)
  22:      1050.60    2.863652  ( -0.040024   1.691759  -0.000000)
  23:      1052.67    3.934269  (  0.000000   0.000001   1.983499)
  24:      1105.06    5.891298  (  2.392099  -0.411292   0.000000)
  25:      1167.05    0.066606  ( -0.242036  -0.089580  -0.000000)
  26:      1189.72    0.251876  ( -0.042820   0.500043   0.000000)
  27:      1232.77    0.827257  ( -0.168101   0.893867   0.000000)
  28:      1333.92    0.412034  (  0.176245   0.617229   0.000000)
  29:      1360.94    0.163564  (  0.106760   0.390085   0.000000)
  30:      1395.37    0.230386  (  0.443299  -0.184045   0.000000)
  31:      1451.74    1.548550  (  1.244272  -0.018386  -0.000000)
  32:      1456.39    5.958403  (  0.000000   0.000000   2.440984)
  33:      1488.86   10.452832  (  3.218258   0.309269   0.000000)
  34:      1528.55   14.635410  (  0.081839  -3.824750  -0.000000)
  35:      1638.94    0.543336  (  0.698829  -0.234467   0.000000)
  36:      1664.07    7.440345  ( -0.089294   2.726238   0.000000)
  37:      3021.78   24.672019  (  0.601061  -4.930593  -0.000000)
  38:      3086.09   14.127034  ( -0.000000  -0.000001   3.758595)
  39:      3122.12   12.401151  (  3.360679   1.052136   0.000000)
  40:      3157.00    7.762154  (  1.396024  -2.411072  -0.000000)
  41:      3160.94    5.145405  ( -1.846268  -1.317839   0.000000)
  42:      3171.80    6.751160  ( -0.036746   2.598040  -0.000000)
  43:      3180.49   31.235724  ( -5.572766  -0.424269  -0.000000)
  44:      3191.24   11.790340  (  0.165041  -3.429738  -0.000000)

The first frequency considered to be a vibration is 6
The total number of vibrations considered is 39


--------------------------
THERMOCHEMISTRY AT 298.15K
--------------------------

Temperature         ... 298.15 K
Pressure            ... 1.00 atm
Total Mass          ... 92.14 AMU

Throughout the following assumptions are being made:
  (1) The electronic state is orbitally nondegenerate
  (2) There are no thermally accessible electronically excited states
  (3) Hindered rotations indicated by low frequency modes are not
      treated as such but are treated as vibrations and this may
      cause some error
  (4) All equations used are the standard statistical mechanics
      equations for an ideal gas
  (5) All vibrations are strictly harmonic

freq.       8.00  E(vib)   ...       0.58 
freq.     213.58  E(vib)   ...       0.34 
freq.     344.80  E(vib)   ...       0.23 
freq.     420.24  E(vib)   ...       0.18 
freq.     483.10  E(vib)   ...       0.15 
freq.     527.85  E(vib)   ...       0.13 
freq.     634.52  E(vib)   ...       0.09 
freq.     721.17  E(vib)   ...       0.07 
freq.     752.12  E(vib)   ...       0.06 
freq.     800.46  E(vib)   ...       0.05 
freq.     863.78  E(vib)   ...       0.04 
freq.     922.04  E(vib)   ...       0.03 
freq.     989.51  E(vib)   ...       0.02 
freq.     999.88  E(vib)   ...       0.02 
freq.    1014.06  E(vib)   ...       0.02 
freq.    1022.37  E(vib)   ...       0.02 
freq.    1050.60  E(vib)   ...       0.02 
freq.    1052.67  E(vib)   ...       0.02 
freq.    1105.06  E(vib)   ...       0.02 
freq.    1167.05  E(vib)   ...       0.01 
freq.    1189.72  E(vib)   ...       0.01 
freq.    1232.77  E(vib)   ...       0.01 
freq.    1333.92  E(vib)   ...       0.01 
freq.    1360.94  E(vib)   ...       0.01 
freq.    1395.37  E(vib)   ...       0.00 
freq.    1451.74  E(vib)   ...       0.00 
freq.    1456.39  E(vib)   ...       0.00 
freq.    1488.86  E(vib)   ...       0.00 
freq.    1528.55  E(vib)   ...       0.00 
freq.    1638.94  E(vib)   ...       0.00 
freq.    1664.07  E(vib)   ...       0.00 
freq.    3021.78  E(vib)   ...       0.00 
freq.    3086.09  E(vib)   ...       0.00 
freq.    3122.12  E(vib)   ...       0.00 
freq.    3157.00  E(vib)   ...       0.00 
freq.    3160.94  E(vib)   ...       0.00 
freq.    3171.80  E(vib)   ...       0.00 
freq.    3180.49  E(vib)   ...       0.00 
freq.    3191.24  E(vib)   ...       0.00 

------------
INNER ENERGY
------------

The inner energy is: U= E(el) + E(ZPE) + E(vib) + E(rot) + E(trans)
    E(el)   - is the total energy from the electronic structure calculation
              = E(kin-el) + E(nuc-el) + E(el-el) + E(nuc-nuc)
    E(ZPE)  - the the zero temperature vibrational energy from the frequency calculation
    E(vib)  - the the finite temperature correction to E(ZPE) due to population
              of excited vibrational states
    E(rot)  - is the rotational thermal energy
    E(trans)- is the translational thermal energy

Summary of contributions to the inner energy U:
Electronic energy                ...   -271.18995243 Eh
Zero point energy                ...      0.12740786 Eh      79.95 kcal/mol
Thermal vibrational correction   ...      0.00342667 Eh       2.15 kcal/mol
Thermal rotational correction    ...      0.00141627 Eh       0.89 kcal/mol
Thermal translational correction ...      0.00141627 Eh       0.89 kcal/mol
-----------------------------------------------------------------------
Total thermal energy                   -271.05628536 Eh


Summary of corrections to the electronic energy:
(perhaps to be used in another calculation)
Total thermal correction                  0.00625921 Eh       3.93 kcal/mol
Non-thermal (ZPE) correction              0.12740786 Eh      79.95 kcal/mol
-----------------------------------------------------------------------
Total correction                          0.13366707 Eh      83.88 kcal/mol


--------
ENTHALPY
--------

The enthalpy is H = U + kB*T
                kB is Boltzmann's constant
Total free energy                 ...   -271.05628536 Eh 
Thermal Enthalpy correction       ...      0.00094421 Eh       0.59 kcal/mol
-----------------------------------------------------------------------
Total Enthalpy                    ...   -271.05534115 Eh


Note: Rotational entropy computed according to Herzberg 
Infrared and Raman Spectra, Chapter V,1, Van Nostrand Reinhold, 1945 
Point Group:  Cs, Symmetry Number:   1  
Rotational constants in cm-1:     0.183668     0.083310     0.057937 

Vibrational entropy computed according to the QRRHO of S. Grimme
Chem.Eur.J. 2012 18 9955


-------
ENTROPY
-------

The entropy contributions are T*S = T*(S(el)+S(vib)+S(rot)+S(trans))
     S(el)   - electronic entropy
     S(vib)  - vibrational entropy
     S(rot)  - rotational entropy
     S(trans)- translational entropy
The entropies will be listed as mutliplied by the temperature to get
units of energy

Electronic entropy                ...      0.00000000 Eh      0.00 kcal/mol
Vibrational entropy               ...      0.00618547 Eh      3.88 kcal/mol
Rotational entropy                ...      0.01282877 Eh      8.05 kcal/mol
Translational entropy             ...      0.01875532 Eh     11.77 kcal/mol
-----------------------------------------------------------------------
Final entropy term                ...      0.03776955 Eh     23.70 kcal/mol

In case the symmetry of your molecule has not been determined correctly
or in case you have a reason to use a different symmetry number we print 
out the resulting rotational entropy values for sn=1,12 :
 --------------------------------------------------------
|  sn= 1 | S(rot)=       0.01282877 Eh      8.05 kcal/mol|
|  sn= 2 | S(rot)=       0.01217431 Eh      7.64 kcal/mol|
|  sn= 3 | S(rot)=       0.01179148 Eh      7.40 kcal/mol|
|  sn= 4 | S(rot)=       0.01151985 Eh      7.23 kcal/mol|
|  sn= 5 | S(rot)=       0.01130917 Eh      7.10 kcal/mol|
|  sn= 6 | S(rot)=       0.01113702 Eh      6.99 kcal/mol|
|  sn= 7 | S(rot)=       0.01099147 Eh      6.90 kcal/mol|
|  sn= 8 | S(rot)=       0.01086540 Eh      6.82 kcal/mol|
|  sn= 9 | S(rot)=       0.01075419 Eh      6.75 kcal/mol|
|  sn=10 | S(rot)=       0.01065471 Eh      6.69 kcal/mol|
|  sn=11 | S(rot)=       0.01056472 Eh      6.63 kcal/mol|
|  sn=12 | S(rot)=       0.01048256 Eh      6.58 kcal/mol|
 --------------------------------------------------------


-------------------
GIBBS FREE ENERGY
-------------------

The Gibbs free energy is G = H - T*S

Total enthalpy                    ...   -271.05534115 Eh 
Total entropy correction          ...     -0.03776955 Eh    -23.70 kcal/mol
-----------------------------------------------------------------------
Final Gibbs free energy         ...   -271.09311071 Eh

For completeness - the Gibbs free energy minus the electronic energy
G-E(el)                           ...      0.09684173 Eh     60.77 kcal/mol


Timings for individual modules:

Sum of individual times         ...     2419.283 sec (=  40.321 min)
GTO integral calculation        ...        3.352 sec (=   0.056 min)   0.1 %
SCF iterations                  ...      305.836 sec (=   5.097 min)  12.6 %
SCF Gradient evaluation         ...      125.981 sec (=   2.100 min)   5.2 %
Geometry relaxation             ...        0.893 sec (=   0.015 min)   0.0 %
Analytical frequency calculation...     1983.221 sec (=  33.054 min)  82.0 %
                             ****ORCA TERMINATED NORMALLY****
TOTAL RUN TIME: 0 days 0 hours 40 minutes 21 seconds 10 msec
