
                                 *****************
                                 * O   R   C   A *
                                 *****************

                                            #,                                       
                                            ###                                      
                                            ####                                     
                                            #####                                    
                                            ######                                   
                                           ########,                                 
                                     ,,################,,,,,                         
                               ,,#################################,,                 
                          ,,##########################################,,             
                       ,#########################################, ''#####,          
                    ,#############################################,,   '####,        
                  ,##################################################,,,,####,       
                ,###########''''           ''''###############################       
              ,#####''   ,,,,##########,,,,          '''####'''          '####       
            ,##' ,,,,###########################,,,                        '##       
           ' ,,###''''                  '''############,,,                           
         ,,##''                                '''############,,,,        ,,,,,,###''
      ,#''                                            '''#######################'''  
     '                                                          ''''####''''         
             ,#######,   #######,   ,#######,      ##                                
            ,#'     '#,  ##    ##  ,#'     '#,    #''#        ######   ,####,        
            ##       ##  ##   ,#'  ##            #'  '#       #        #'  '#        
            ##       ##  #######   ##           ,######,      #####,   #    #        
            '#,     ,#'  ##    ##  '#,     ,#' ,#      #,         ##   #,  ,#        
             '#######'   ##     ##  '#######'  #'      '#     #####' # '####'        



                  #######################################################
                  #                        -***-                        #
                  #          Department of theory and spectroscopy      #
                  #    Directorship and core code : Frank Neese         #
                  #        Max Planck Institute fuer Kohlenforschung    #
                  #                Kaiser Wilhelm Platz 1               #
                  #                 D-45470 Muelheim/Ruhr               #
                  #                      Germany                        #
                  #                                                     #
                  #                  All rights reserved                #
                  #                        -***-                        #
                  #######################################################



                         Program Version 5.0.4 -  RELEASE  -

 With contributions from (in alphabetic order):
   Daniel Aravena         : Magnetic Suceptibility
   Michael Atanasov       : Ab Initio Ligand Field Theory (pilot matlab implementation)
   Alexander A. Auer      : GIAO ZORA, VPT2 properties, NMR spectrum
   Ute Becker             : Parallelization
   Giovanni Bistoni       : ED, misc. LED, open-shell LED, HFLD
   Martin Brehm           : Molecular dynamics
   Dmytro Bykov           : SCF Hessian
   Vijay G. Chilkuri      : MRCI spin determinant printing, contributions to CSF-ICE
   Dipayan Datta          : RHF DLPNO-CCSD density
   Achintya Kumar Dutta   : EOM-CC, STEOM-CC
   Dmitry Ganyushin       : Spin-Orbit,Spin-Spin,Magnetic field MRCI
   Miquel Garcia          : C-PCM and meta-GGA Hessian, CC/C-PCM, Gaussian charge scheme
   Yang Guo               : DLPNO-NEVPT2, F12-NEVPT2, CIM, IAO-localization
   Andreas Hansen         : Spin unrestricted coupled pair/coupled cluster methods
   Benjamin Helmich-Paris : MC-RPA, TRAH-SCF, COSX integrals
   Lee Huntington         : MR-EOM, pCC
   Robert Izsak           : Overlap fitted RIJCOSX, COSX-SCS-MP3, EOM
   Marcus Kettner         : VPT2
   Christian Kollmar      : KDIIS, OOCD, Brueckner-CCSD(T), CCSD density, CASPT2, CASPT2-K
   Simone Kossmann        : Meta GGA functionals, TD-DFT gradient, OOMP2, MP2 Hessian
   Martin Krupicka        : Initial AUTO-CI
   Lucas Lang             : DCDCAS
   Marvin Lechner         : AUTO-CI (C++ implementation), FIC-MRCC
   Dagmar Lenk            : GEPOL surface, SMD
   Dimitrios Liakos       : Extrapolation schemes; Compound Job, initial MDCI parallelization
   Dimitrios Manganas     : Further ROCIS development; embedding schemes
   Dimitrios Pantazis     : SARC Basis sets
   Anastasios Papadopoulos: AUTO-CI, single reference methods and gradients
   Taras Petrenko         : DFT Hessian,TD-DFT gradient, ASA, ECA, R-Raman, ABS, FL, XAS/XES, NRVS
   Peter Pinski           : DLPNO-MP2, DLPNO-MP2 Gradient
   Christoph Reimann      : Effective Core Potentials
   Marius Retegan         : Local ZFS, SOC
   Christoph Riplinger    : Optimizer, TS searches, QM/MM, DLPNO-CCSD(T), (RO)-DLPNO pert. Triples
   Tobias Risthaus        : Range-separated hybrids, TD-DFT gradient, RPA, STAB
   Michael Roemelt        : Original ROCIS implementation
   Masaaki Saitow         : Open-shell DLPNO-CCSD energy and density
   Barbara Sandhoefer     : DKH picture change effects
   Avijit Sen             : IP-ROCIS
   Kantharuban Sivalingam : CASSCF convergence, NEVPT2, FIC-MRCI
   Bernardo de Souza      : ESD, SOC TD-DFT
   Georgi Stoychev        : AutoAux, RI-MP2 NMR, DLPNO-MP2 response
   Willem Van den Heuvel  : Paramagnetic NMR
   Boris Wezisla          : Elementary symmetry handling
   Frank Wennmohs         : Technical directorship


 We gratefully acknowledge several colleagues who have allowed us to
 interface, adapt or use parts of their codes:
   Stefan Grimme, W. Hujo, H. Kruse, P. Pracht,  : VdW corrections, initial TS optimization,
                  C. Bannwarth, S. Ehlert          DFT functionals, gCP, sTDA/sTD-DF
   Ed Valeev, F. Pavosevic, A. Kumar             : LibInt (2-el integral package), F12 methods
   Garnet Chan, S. Sharma, J. Yang, R. Olivares  : DMRG
   Ulf Ekstrom                                   : XCFun DFT Library
   Mihaly Kallay                                 : mrcc  (arbitrary order and MRCC methods)
   Jiri Pittner, Ondrej Demel                    : Mk-CCSD
   Frank Weinhold                                : gennbo (NPA and NBO analysis)
   Christopher J. Cramer and Donald G. Truhlar   : smd solvation model
   Lars Goerigk                                  : TD-DFT with DH, B97 family of functionals
   V. Asgeirsson, H. Jonsson                     : NEB implementation
   FAccTs GmbH                                   : IRC, NEB, NEB-TS, DLPNO-Multilevel, CI-OPT
                                                   MM, QMMM, 2- and 3-layer-ONIOM, Crystal-QMMM,
                                                   LR-CPCM, SF, NACMEs, symmetry and pop. for TD-DFT,
                                                   nearIR, NL-DFT gradient (VV10), updates on ESD,
                                                   ML-optimized integration grids
   S Lehtola, MJT Oliveira, MAL Marques          : LibXC Library
   Liviu Ungur et al                             : ANISO software


 Your calculation uses the libint2 library for the computation of 2-el integrals
 For citations please refer to: http://libint.valeyev.net

 Your ORCA version has been built with support for libXC version: 5.1.0
 For citations please refer to: https://tddft.org/programs/libxc/

 This ORCA versions uses:
   CBLAS   interface :  Fast vector & matrix operations
   LAPACKE interface :  Fast linear algebra routines
   Shared memory     :  Shared parallel matrices


Your calculation utilizes the atom-pairwise dispersion correction
based on tight binding partial charges (D4)
Cite in your paper:
E.Caldeweyher, C.Bannwarth, S.Grimme, J.Chem.Phys., (2017), 147, 034112.
E.Caldeweyher, S.Ehlert, A.Hansen, H.Neugebauer, S.Grimme, J.Chem.Phys., (2018), in progress.
   

================================================================================

----- Orbital basis set information -----
Your calculation utilizes the basis: def2-SVP
   F. Weigend and R. Ahlrichs, Phys. Chem. Chem. Phys. 7, 3297 (2005).

----- AuxJ basis set information -----
Your calculation utilizes the auxiliary basis: def2/J
   F. Weigend, Phys. Chem. Chem. Phys. 8, 1057 (2006).

================================================================================
                                        WARNINGS
                       Please study these warnings very carefully!
================================================================================


WARNING: Geometry Optimization
  ===> : Switching off AutoStart
         For restart on a previous wavefunction, please use MOREAD

INFO   : the flag for use of the SHARK integral package has been found!

================================================================================
                                       INPUT FILE
================================================================================
NAME = opt.inp
|  1> !B3LYP DEF2-SVP OPT FREQ D4 SOSCF
|  2> 
|  3> * xyz 0 1
|  4>    C       -3.00107        2.28200        0.00290
|  5>    C       -4.38179        2.01753       -0.00299
|  6>    C       -4.87310        0.70798       -0.00269
|  7>    C       -3.97787       -0.35067        0.00413
|  8>    C       -2.61086       -0.11423        0.01090
|  9>    C       -2.12266        1.19910        0.01051
| 10>    H       -5.10072        2.83430       -0.00853
| 11>    H       -5.94553        0.54169       -0.00776
| 12>    H       -1.04841        1.30943        0.01801
| 13>    H       -1.91800       -0.95178        0.01699
| 14>    O       -4.40103       -1.64501        0.00482
| 15>    H       -5.37225       -1.65690       -0.00033
| 16>    N       -2.63750        3.64063        0.00207
| 17>    C       -1.45676        4.31736       -0.00098
| 18>    H       -3.40619        4.30248        0.00407
| 19>    C       -0.13363        3.61488       -0.01154
| 20>    H       -0.03192        3.00782       -0.91387
| 21>    H       -0.01156        3.02046        0.89666
| 22>    H        0.66708        4.36186       -0.02628
| 23>    O       -1.50226        5.55177        0.00393
| 24> **                         ****END OF INPUT****
================================================================================

                       *****************************
                       * Geometry Optimization Run *
                       *****************************

Geometry optimization settings:
Update method            Update   .... BFGS
Choice of coordinates    CoordSys .... Z-matrix Internals
Initial Hessian          InHess   .... Almoef's Model

Convergence Tolerances:
Energy Change            TolE     ....  5.0000e-06 Eh
Max. Gradient            TolMAXG  ....  3.0000e-04 Eh/bohr
RMS Gradient             TolRMSG  ....  1.0000e-04 Eh/bohr
Max. Displacement        TolMAXD  ....  4.0000e-03 bohr
RMS Displacement         TolRMSD  ....  2.0000e-03 bohr
Strict Convergence                ....  False
------------------------------------------------------------------------------
                        ORCA OPTIMIZATION COORDINATE SETUP
------------------------------------------------------------------------------

The optimization will be done in new redundant internal coordinates
Making redundant internal coordinates   ...  (new redundants) done
Evaluating the initial hessian          ...  (Almloef) done
Evaluating the coordinates              ...  done
Calculating the B-matrix                .... done
Calculating the G-matrix                .... done
Diagonalizing the G-matrix              .... done
Small eigenvalue found = 9.980e-03
The first mode is                       ....   37
The number of degrees of freedom        ....   54

    -----------------------------------------------------------------
                    Redundant Internal Coordinates


    -----------------------------------------------------------------
         Definition                    Initial Value    Approx d2E/dq
    -----------------------------------------------------------------
      1. B(C   1,C   0)                  1.4058         0.589492   
      2. B(C   2,C   1)                  1.3987         0.605187   
      3. B(C   3,C   2)                  1.3864         0.633015   
      4. B(C   4,C   3)                  1.3873         0.630970   
      5. B(C   5,C   0)                  1.3944         0.614792   
      6. B(C   5,C   4)                  1.4011         0.599758   
      7. B(H   6,C   1)                  1.0881         0.362596   
      8. B(H   7,C   2)                  1.0853         0.366428   
      9. B(H   8,C   5)                  1.0799         0.373675   
     10. B(H   9,C   4)                  1.0870         0.364083   
     11. B(O  10,C   3)                  1.3618         0.620778   
     12. B(H  11,O  10)                  0.9713         0.498802   
     13. B(N  12,C   0)                  1.4064         0.526811   
     14. B(C  13,N  12)                  1.3609         0.622674   
     15. B(H  14,N  12)                  1.0144         0.425827   
     16. B(C  15,C  13)                  1.4981         0.420043   
     17. B(H  16,C  15)                  1.0923         0.357102   
     18. B(H  17,C  15)                  1.0923         0.357104   
     19. B(H  18,C  15)                  1.0951         0.353363   
     20. B(O  19,C  13)                  1.2353         0.987999   
     21. A(C   1,C   0,N  12)          115.8243         0.415094   
     22. A(C   5,C   0,N  12)          125.9705         0.418211   
     23. A(C   1,C   0,C   5)          118.2051         0.429497   
     24. A(C   0,C   1,C   2)          121.4078         0.428285   
     25. A(C   2,C   1,H   6)          118.0803         0.351879   
     26. A(C   0,C   1,H   6)          120.5119         0.350320   
     27. A(C   3,C   2,H   7)          121.4057         0.355200   
     28. A(C   1,C   2,H   7)          119.3784         0.352505   
     29. A(C   1,C   2,C   3)          119.2159         0.433800   
     30. A(C   2,C   3,C   4)          120.4069         0.437071   
     31. A(C   2,C   3,O  10)          121.6766         0.432937   
     32. A(C   4,C   3,O  10)          117.9165         0.432685   
     33. A(C   5,C   4,H   9)          120.0090         0.351586   
     34. A(C   3,C   4,H   9)          119.7871         0.354619   
     35. A(C   3,C   4,C   5)          120.2038         0.432846   
     36. A(C   0,C   5,C   4)          120.5604         0.430830   
     37. A(C   4,C   5,H   8)          116.2546         0.353137   
     38. A(C   0,C   5,H   8)          123.1849         0.354621   
     39. A(C   3,O  10,H  11)          108.8051         0.367565   
     40. A(C  13,N  12,H  14)          109.4526         0.357954   
     41. A(C   0,N  12,H  14)          115.7473         0.347967   
     42. A(C   0,N  12,C  13)          134.8001         0.416445   
     43. A(N  12,C  13,O  19)          117.7069         0.466530   
     44. A(C  15,C  13,O  19)          120.0766         0.437212   
     45. A(N  12,C  13,C  15)          122.2165         0.402663   
     46. A(H  17,C  15,H  18)          107.4981         0.289599   
     47. A(H  16,C  15,H  18)          107.4507         0.289599   
     48. A(C  13,C  15,H  18)          109.0269         0.329616   
     49. A(H  16,C  15,H  17)          111.9638         0.290077   
     50. A(C  13,C  15,H  17)          110.3670         0.330190   
     51. A(C  13,C  15,H  16)          110.4065         0.330190   
     52. D(C   2,C   1,C   0,C   5)     -0.0651         0.023912   
     53. D(C   2,C   1,C   0,N  12)   -179.9928         0.023912   
     54. D(H   6,C   1,C   0,N  12)      0.0434         0.023912   
     55. D(H   6,C   1,C   0,C   5)    179.9710         0.023912   
     56. D(C   3,C   2,C   1,H   6)    179.9920         0.025272   
     57. D(H   7,C   2,C   1,C   0)   -179.9747         0.025272   
     58. D(C   3,C   2,C   1,C   0)      0.0273         0.025272   
     59. D(H   7,C   2,C   1,H   6)     -0.0100         0.025272   
     60. D(O  10,C   3,C   2,H   7)     -0.0017         0.027800   
     61. D(O  10,C   3,C   2,C   1)    179.9963         0.027800   
     62. D(C   4,C   3,C   2,H   7)   -179.9828         0.027800   
     63. D(C   4,C   3,C   2,C   1)      0.0153         0.027800   
     64. D(C   5,C   4,C   3,O  10)    179.9998         0.027610   
     65. D(H   9,C   4,C   3,C   2)    179.9529         0.027610   
     66. D(C   5,C   4,C   3,C   2)     -0.0185         0.027610   
     67. D(H   9,C   4,C   3,O  10)     -0.0288         0.027610   
     68. D(H   8,C   5,C   4,H   9)     -0.0901         0.024796   
     69. D(C   0,C   5,C   4,H   9)   -179.9922         0.024796   
     70. D(C   0,C   5,C   4,C   3)     -0.0209         0.024796   
     71. D(H   8,C   5,C   0,N  12)      0.0858         0.026128   
     72. D(H   8,C   5,C   0,C   1)   -179.8337         0.026128   
     73. D(H   8,C   5,C   4,C   3)    179.8812         0.024796   
     74. D(C   4,C   5,C   0,N  12)    179.9810         0.026128   
     75. D(C   4,C   5,C   0,C   1)      0.0614         0.026128   
     76. D(H  11,O  10,C   3,C   4)    179.9990         0.028278   
     77. D(H  11,O  10,C   3,C   2)      0.0175         0.028278   
     78. D(H  14,N  12,C   0,C   5)   -179.4964         0.022027   
     79. D(H  14,N  12,C   0,C   1)      0.4248         0.022027   
     80. D(C  13,N  12,C   0,C   5)      0.5092         0.022027   
     81. D(C  13,N  12,C   0,C   1)   -179.5696         0.022027   
     82. D(C  15,C  13,N  12,C   0)      0.3166         0.031417   
     83. D(O  19,C  13,N  12,H  14)      0.2502         0.031417   
     84. D(O  19,C  13,N  12,C   0)   -179.7552         0.031417   
     85. D(C  15,C  13,N  12,H  14)   -179.6780         0.031417   
     86. D(H  18,C  15,C  13,O  19)     -0.7058         0.013046   
     87. D(H  18,C  15,C  13,N  12)    179.2208         0.013046   
     88. D(H  17,C  15,C  13,O  19)    117.1523         0.013046   
     89. D(H  17,C  15,C  13,N  12)    -62.9211         0.013046   
     90. D(H  16,C  15,C  13,O  19)   -118.5294         0.013046   
     91. D(H  16,C  15,C  13,N  12)     61.3972         0.013046   
    -----------------------------------------------------------------

Number of atoms                         .... 20
Number of degrees of freedom            .... 91

         *************************************************************
         *                GEOMETRY OPTIMIZATION CYCLE   1            *
         *************************************************************
---------------------------------
CARTESIAN COORDINATES (ANGSTROEM)
---------------------------------
  C     -3.001070    2.282000    0.002900
  C     -4.381790    2.017530   -0.002990
  C     -4.873100    0.707980   -0.002690
  C     -3.977870   -0.350670    0.004130
  C     -2.610860   -0.114230    0.010900
  C     -2.122660    1.199100    0.010510
  H     -5.100720    2.834300   -0.008530
  H     -5.945530    0.541690   -0.007760
  H     -1.048410    1.309430    0.018010
  H     -1.918000   -0.951780    0.016990
  O     -4.401030   -1.645010    0.004820
  H     -5.372250   -1.656900   -0.000330
  N     -2.637500    3.640630    0.002070
  C     -1.456760    4.317360   -0.000980
  H     -3.406190    4.302480    0.004070
  C     -0.133630    3.614880   -0.011540
  H     -0.031920    3.007820   -0.913870
  H     -0.011560    3.020460    0.896660
  H      0.667080    4.361860   -0.026280
  O     -1.502260    5.551770    0.003930

----------------------------
CARTESIAN COORDINATES (A.U.)
----------------------------
  NO LB      ZA    FRAG     MASS         X           Y           Z
   0 C     6.0000    0    12.011   -5.671200    4.312355    0.005480
   1 C     6.0000    0    12.011   -8.280383    3.812579   -0.005650
   2 C     6.0000    0    12.011   -9.208824    1.337888   -0.005083
   3 C     6.0000    0    12.011   -7.517085   -0.662670    0.007805
   4 C     6.0000    0    12.011   -4.933810   -0.215863    0.020598
   5 C     6.0000    0    12.011   -4.011246    2.265971    0.019861
   6 H     1.0000    0     1.008   -9.638964    5.356051   -0.016119
   7 H     1.0000    0     1.008  -11.235423    1.023646   -0.014664
   8 H     1.0000    0     1.008   -1.981208    2.474464    0.034034
   9 H     1.0000    0     1.008   -3.624495   -1.798604    0.032106
  10 O     8.0000    0    15.999   -8.316741   -3.108618    0.009108
  11 H     1.0000    0     1.008  -10.152081   -3.131087   -0.000624
  12 N     7.0000    0    14.007   -4.984153    6.879794    0.003912
  13 C     6.0000    0    12.011   -2.752877    8.158628   -0.001852
  14 H     1.0000    0     1.008   -6.436766    8.130509    0.007691
  15 C     6.0000    0    12.011   -0.252524    6.831133   -0.021807
  16 H     1.0000    0     1.008   -0.060320    5.683956   -1.726964
  17 H     1.0000    0     1.008   -0.021845    5.707842    1.694442
  18 H     1.0000    0     1.008    1.260599    8.242721   -0.049662
  19 O     8.0000    0    15.999   -2.838860   10.491325    0.007427

--------------------------------
INTERNAL COORDINATES (ANGSTROEM)
--------------------------------
 C      0   0   0     0.000000000000     0.00000000     0.00000000
 C      1   0   0     1.405833130709     0.00000000     0.00000000
 C      2   1   0     1.398680381145   121.40783097     0.00000000
 C      3   2   1     1.386442601697   119.21587901     0.02728348
 C      4   3   2     1.387323338880   120.40689473     0.00000000
 C      1   2   3     1.394393936519   118.20511572   359.93488568
 H      2   1   3     1.088119602525   120.51189682   180.03616150
 H      3   2   1     1.085257653233   119.37843861   180.02532474
 H      6   1   2     1.079926859283   123.18491198   180.16626276
 H      5   4   3     1.087006012035   119.78714620   179.95287894
 O      4   3   2     1.361756548470   121.67657449   179.99625797
 H     11   4   3     0.971306431050   108.80513801     0.00000000
 N      1   2   3     1.406434964973   115.82432987   180.00723677
 C     13   1   2     1.360926060813   134.80008131   180.43043553
 H     13   1   2     1.014363711200   115.74730155     0.42477713
 C     14  13   1     1.498086332926   122.21645481     0.31660309
 H     16  14  13     1.092275696242   110.40654174    61.39716060
 H     16  14  13     1.092274444130   110.36698438   297.07887693
 H     16  14  13     1.095140580976   109.02691069   179.22078229
 O     14  13   1     1.235258032235   117.70693168   180.24481542

---------------------------
INTERNAL COORDINATES (A.U.)
---------------------------
 C      0   0   0     0.000000000000     0.00000000     0.00000000
 C      1   0   0     2.656639607034     0.00000000     0.00000000
 C      2   1   0     2.643122869253   121.40783097     0.00000000
 C      3   2   1     2.619996817608   119.21587901     0.02728348
 C      4   3   2     2.621661169680   120.40689473     0.00000000
 C      1   2   3     2.635022662821   118.20511572   359.93488568
 H      2   1   3     2.056248049724   120.51189682   180.03616150
 H      3   2   1     2.050839749352   119.37843861   180.02532474
 H      6   1   2     2.040766008710   123.18491198   180.16626276
 H      5   4   3     2.054143668672   119.78714620   179.95287894
 O      4   3   2     2.573346937682   121.67657449   179.99625797
 H     11   4   3     1.835503146802   108.80513801     0.00000000
 N      1   2   3     2.657776908971   115.82432987   180.00723677
 C     13   1   2     2.571777543453   134.80008131   180.43043553
 H     13   1   2     1.916869614357   115.74730155     0.42477713
 C     14  13   1     2.830972894201   122.21645481     0.31660309
 H     16  14  13     2.064101928635   110.40654174    61.39716060
 H     16  14  13     2.064099562487   110.36698438   297.07887693
 H     16  14  13     2.069515776188   109.02691069   179.22078229
 O     14  13   1     2.334299385650   117.70693168   180.24481542

---------------------
BASIS SET INFORMATION
---------------------
There are 4 groups of distinct atoms

 Group   1 Type C   : 7s4p1d contracted to 3s2p1d pattern {511/31/1}
 Group   2 Type H   : 4s1p contracted to 2s1p pattern {31/1}
 Group   3 Type O   : 7s4p1d contracted to 3s2p1d pattern {511/31/1}
 Group   4 Type N   : 7s4p1d contracted to 3s2p1d pattern {511/31/1}

Atom   0C    basis set group =>   1
Atom   1C    basis set group =>   1
Atom   2C    basis set group =>   1
Atom   3C    basis set group =>   1
Atom   4C    basis set group =>   1
Atom   5C    basis set group =>   1
Atom   6H    basis set group =>   2
Atom   7H    basis set group =>   2
Atom   8H    basis set group =>   2
Atom   9H    basis set group =>   2
Atom  10O    basis set group =>   3
Atom  11H    basis set group =>   2
Atom  12N    basis set group =>   4
Atom  13C    basis set group =>   1
Atom  14H    basis set group =>   2
Atom  15C    basis set group =>   1
Atom  16H    basis set group =>   2
Atom  17H    basis set group =>   2
Atom  18H    basis set group =>   2
Atom  19O    basis set group =>   3
---------------------------------
AUXILIARY/J BASIS SET INFORMATION
---------------------------------
There are 4 groups of distinct atoms

 Group   1 Type C   : 12s5p4d2f1g contracted to 6s4p3d1f1g pattern {711111/2111/211/2/1}
 Group   2 Type H   : 5s2p1d contracted to 3s1p1d pattern {311/2/1}
 Group   3 Type O   : 12s5p4d2f1g contracted to 6s4p3d1f1g pattern {711111/2111/211/2/1}
 Group   4 Type N   : 12s5p4d2f1g contracted to 6s4p3d1f1g pattern {711111/2111/211/2/1}

Atom   0C    basis set group =>   1
Atom   1C    basis set group =>   1
Atom   2C    basis set group =>   1
Atom   3C    basis set group =>   1
Atom   4C    basis set group =>   1
Atom   5C    basis set group =>   1
Atom   6H    basis set group =>   2
Atom   7H    basis set group =>   2
Atom   8H    basis set group =>   2
Atom   9H    basis set group =>   2
Atom  10O    basis set group =>   3
Atom  11H    basis set group =>   2
Atom  12N    basis set group =>   4
Atom  13C    basis set group =>   1
Atom  14H    basis set group =>   2
Atom  15C    basis set group =>   1
Atom  16H    basis set group =>   2
Atom  17H    basis set group =>   2
Atom  18H    basis set group =>   2
Atom  19O    basis set group =>   3
------------------------------------------------------------------------------
                           ORCA GTO INTEGRAL CALCULATION
                           -- RI-GTO INTEGRALS CHOSEN --
------------------------------------------------------------------------------
------------------------------------------------------------------------------
                   ___                                                        
                  /   \      - P O W E R E D   B Y -                         
                 /     \                                                     
                 |  |  |   _    _      __       _____    __    __             
                 |  |  |  | |  | |    /  \     |  _  \  |  |  /  |          
                  \  \/   | |  | |   /    \    | | | |  |  | /  /          
                 / \  \   | |__| |  /  /\  \   | |_| |  |  |/  /          
                |  |  |   |  __  | /  /__\  \  |    /   |      \           
                |  |  |   | |  | | |   __   |  |    \   |  |\   \          
                \     /   | |  | | |  |  |  |  | |\  \  |  | \   \       
                 \___/    |_|  |_| |__|  |__|  |_| \__\ |__|  \__/        
                                                                              
                      - O R C A' S   B I G   F R I E N D -                    
                                      &                                       
                       - I N T E G R A L  F E E D E R -                       
                                                                              
 v1 FN, 2020, v2 2021                                                         
------------------------------------------------------------------------------


Reading SHARK input file opt.SHARKINP.tmp ... ok
----------------------
SHARK INTEGRAL PACKAGE
----------------------

Number of atoms                             ...     20
Number of basis functions                   ...    199
Number of shells                            ...     93
Maximum angular momentum                    ...      2
Integral batch strategy                     ... SHARK/LIBINT Hybrid
RI-J (if used) integral strategy            ... SPLIT-RIJ (Revised 2003 algorithm where possible)
Printlevel                                  ...      1
Contraction scheme used                     ... SEGMENTED contraction
Coulomb Range Separation                    ... NOT USED
Exchange Range Separation                   ... NOT USED
Finite Nucleus Model                        ... NOT USED
Auxiliary Coulomb fitting basis             ... AVAILABLE
   # of basis functions in Aux-J            ...    638
   # of shells in Aux-J                     ...    210
   Maximum angular momentum in Aux-J        ...      4
Auxiliary J/K fitting basis                 ... NOT available
Auxiliary Correlation fitting basis         ... NOT available
Auxiliary 'external' fitting basis          ... NOT available
Integral threshold                          ...     2.500000e-11
Primitive cut-off                           ...     2.500000e-12
Primitive pair pre-selection threshold      ...     2.500000e-12

Calculating pre-screening integrals         ... done (  0.1 sec) Dimension = 93
Organizing shell pair data                  ... done (  0.1 sec)
Shell pair information
Total number of shell pairs                 ...      4371
Shell pairs after pre-screening             ...      3819
Total number of primitive shell pairs       ...     15923
Primitive shell pairs kept                  ...      9806
          la=0 lb=0:   1166 shell pairs
          la=1 lb=0:   1398 shell pairs
          la=1 lb=1:    438 shell pairs
          la=2 lb=0:    475 shell pairs
          la=2 lb=1:    288 shell pairs
          la=2 lb=2:     54 shell pairs

Calculating one electron integrals          ... done (  0.0 sec)
Calculating RI/J V-Matrix + Cholesky decomp.... done (  0.0 sec)
Calculating Nuclear repulsion               ... done (  0.0 sec) ENN=    571.151519238846 Eh

SHARK setup successfully completed in   0.5 seconds

Maximum memory used throughout the entire GTOINT-calculation: 28.5 MB
-------------------------------------------------------------------------------
                                 ORCA SCF
-------------------------------------------------------------------------------

------------
SCF SETTINGS
------------
Hamiltonian:
 Density Functional     Method          .... DFT(GTOs)
 Exchange Functional    Exchange        .... B88
   X-Alpha parameter    XAlpha          ....  0.666667
   Becke's b parameter  XBeta           ....  0.004200
 Correlation Functional Correlation     .... LYP
 LDA part of GGA corr.  LDAOpt          .... VWN-5
 Gradients option       PostSCFGGA      .... off
 Hybrid DFT is turned on
   Fraction HF Exchange ScalHFX         ....  0.200000
   Scaling of DF-GGA-X  ScalDFX         ....  0.720000
   Scaling of DF-GGA-C  ScalDFC         ....  0.810000
   Scaling of DF-LDA-C  ScalLDAC        ....  1.000000
   Perturbative correction              ....  0.000000
   Density functional embedding theory  .... OFF
   NL short-range parameter             ....  4.800000
 RI-approximation to the Coulomb term is turned on
   Number of AuxJ basis functions       .... 638
   RIJ-COSX (HFX calculated with COS-X)).... on


General Settings:
 Integral files         IntName         .... opt
 Hartree-Fock type      HFTyp           .... RHF
 Total Charge           Charge          ....    0
 Multiplicity           Mult            ....    1
 Number of Electrons    NEL             ....   80
 Basis Dimension        Dim             ....  199
 Nuclear Repulsion      ENuc            ....    571.1515192388 Eh

Convergence Acceleration:
 DIIS                   CNVDIIS         .... on
   Start iteration      DIISMaxIt       ....    12
   Startup error        DIISStart       ....  0.200000
   # of expansion vecs  DIISMaxEq       ....     5
   Bias factor          DIISBfac        ....   1.050
   Max. coefficient     DIISMaxC        ....  10.000
 Trust-Rad. Augm. Hess. CNVTRAH         .... auto
   Auto Start mean grad. ratio tolernc. ....  1.125000
   Auto Start start iteration           ....    20
   Auto Start num. interpolation iter.  ....    10
   Max. Number of Micro iterations      ....    16
   Max. Number of Macro iterations      .... Maxiter - #DIIS iter
   Number of Davidson start vectors     ....     2
   Converg. threshold I  (grad. norm)   ....   1.000e-05
   Converg. threshold II (energy diff.) ....   1.000e-08
   Grad. Scal. Fac. for Micro threshold ....   0.100
   Minimum threshold for Micro iter.    ....   0.010
   NR start threshold (gradient norm)   ....   0.001
   Initial trust radius                 ....   0.400
   Minimum AH scaling param. (alpha)    ....   1.000
   Maximum AH scaling param. (alpha)    .... 1000.000
   Orbital update algorithm             .... Taylor
   White noise on init. David. guess    .... on
   Maximum white noise                  ....   0.010
   Quad. conv. algorithm                .... NR
 SOSCF                  CNVSOSCF        .... on
   Start iteration      SOSCFMaxIt      ....   150
   Startup grad/error   SOSCFStart      ....  0.003300
 Level Shifting         CNVShift        .... on
   Level shift para.    LevelShift      ....    0.2500
   Turn off err/grad.   ShiftErr        ....    0.0010
 Zerner damping         CNVZerner       .... off
 Static damping         CNVDamp         .... on
   Fraction old density DampFac         ....    0.7000
   Max. Damping (<1)    DampMax         ....    0.9800
   Min. Damping (>=0)   DampMin         ....    0.0000
   Turn off err/grad.   DampErr         ....    0.1000
 Fernandez-Rico         CNVRico         .... off

SCF Procedure:
 Maximum # iterations   MaxIter         ....   125
 SCF integral mode      SCFMode         .... Direct
   Integral package                     .... SHARK and LIBINT hybrid scheme
 Reset frequency        DirectResetFreq ....    20
 Integral Threshold     Thresh          ....  2.500e-11 Eh
 Primitive CutOff       TCut            ....  2.500e-12 Eh

Convergence Tolerance:
 Convergence Check Mode ConvCheckMode   .... Total+1el-Energy
 Convergence forced     ConvForced      .... 0
 Energy Change          TolE            ....  1.000e-08 Eh
 1-El. energy change                    ....  1.000e-05 Eh
 Orbital Gradient       TolG            ....  1.000e-05
 Orbital Rotation angle TolX            ....  1.000e-05
 DIIS Error             TolErr          ....  5.000e-07


Diagonalization of the overlap matrix:
Smallest eigenvalue                        ... 2.370e-04
Time for diagonalization                   ...    0.015 sec
Threshold for overlap eigenvalues          ... 1.000e-08
Number of eigenvalues below threshold      ... 0
Time for construction of square roots      ...    0.006 sec
Total time needed                          ...    0.021 sec

Time for model grid setup =    0.382 sec

------------------------------
INITIAL GUESS: MODEL POTENTIAL
------------------------------
Loading Hartree-Fock densities                     ... done
Calculating cut-offs                               ... done
Initializing the effective Hamiltonian             ... done
Setting up the integral package (SHARK)            ... done
Starting the Coulomb interaction                   ... done (   0.3 sec)
Reading the grid                                   ... done
Mapping shells                                     ... done
Starting the XC term evaluation                    ... done (   0.5 sec)
  promolecular density results
     # of electrons  =     79.999994130
     EX              =    -66.810725721
     EC              =     -2.729287862
     EX+EC           =    -69.540013583
Transforming the Hamiltonian                       ... done (   0.0 sec)
Diagonalizing the Hamiltonian                      ... done (   0.0 sec)
Back transforming the eigenvectors                 ... done (   0.0 sec)
Now organizing SCF variables                       ... done
                      ------------------
                      INITIAL GUESS DONE (   1.2 sec)
                      ------------------
-------------------
DFT GRID GENERATION
-------------------

General Integration Accuracy     IntAcc      ... 4.388
Radial Grid Type                 RadialGrid  ... OptM3 with GC (2021)
Angular Grid (max. ang.)         AngularGrid ... 4 (Lebedev-302)
Angular grid pruning method      GridPruning ... 4 (adaptive)
Weight generation scheme         WeightScheme... Becke
Basis function cutoff            BFCut       ... 1.0000e-11
Integration weight cutoff        WCut        ... 1.0000e-14
Angular grids for H and He will be reduced by one unit
Partially contracted basis set               ... off
Rotationally invariant grid construction     ... off

Total number of grid points                  ...    95058
Total number of batches                      ...     1497
Average number of points per batch           ...       63
Average number of grid points per atom       ...     4753
Time for grid setup =    1.853 sec

--------------------
COSX GRID GENERATION
--------------------

GRIDX 1
-------
General Integration Accuracy     IntAcc      ... 3.816
Radial Grid Type                 RadialGrid  ... OptM3 with GC (2021)
Angular Grid (max. ang.)         AngularGrid ... 1 (Lebedev-50)
Angular grid pruning method      GridPruning ... 4 (adaptive)
Weight generation scheme         WeightScheme... Becke
Basis function cutoff            BFCut       ... 1.0000e-11
Integration weight cutoff        WCut        ... 1.0000e-14
Angular grids for H and He will be reduced by one unit
Partially contracted basis set               ... on
Rotationally invariant grid construction     ... off

Total number of grid points                  ...    12109
Total number of batches                      ...      201
Average number of points per batch           ...       60
Average number of grid points per atom       ...      605
UseSFitting                                  ... on

GRIDX 2
-------
General Integration Accuracy     IntAcc      ... 4.020
Radial Grid Type                 RadialGrid  ... OptM3 with GC (2021)
Angular Grid (max. ang.)         AngularGrid ... 2 (Lebedev-110)
Angular grid pruning method      GridPruning ... 4 (adaptive)
Weight generation scheme         WeightScheme... Becke
Basis function cutoff            BFCut       ... 1.0000e-11
Integration weight cutoff        WCut        ... 1.0000e-14
Angular grids for H and He will be reduced by one unit
Partially contracted basis set               ... on
Rotationally invariant grid construction     ... off

Total number of grid points                  ...    26530
Total number of batches                      ...      426
Average number of points per batch           ...       62
Average number of grid points per atom       ...     1327
UseSFitting                                  ... on

GRIDX 3
-------
General Integration Accuracy     IntAcc      ... 4.338
Radial Grid Type                 RadialGrid  ... OptM3 with GC (2021)
Angular Grid (max. ang.)         AngularGrid ... 3 (Lebedev-194)
Angular grid pruning method      GridPruning ... 4 (adaptive)
Weight generation scheme         WeightScheme... Becke
Basis function cutoff            BFCut       ... 1.0000e-11
Integration weight cutoff        WCut        ... 1.0000e-14
Angular grids for H and He will be reduced by one unit
Partially contracted basis set               ... on
Rotationally invariant grid construction     ... off

Total number of grid points                  ...    58229
Total number of batches                      ...      920
Average number of points per batch           ...       63
Average number of grid points per atom       ...     2911
UseSFitting                                  ... on

Time for X-Grid setup             =    1.898 sec

--------------
SCF ITERATIONS
--------------
ITER       Energy         Delta-E        Max-DP      RMS-DP      [F,P]     Damp
               ***  Starting incremental Fock matrix formation  ***
  0   -514.4923460487   0.000000000000 0.12196621  0.00316882  0.2847561 0.7000
  1   -514.6409738725  -0.148627823763 0.07307719  0.00208196  0.1087687 0.7000
                               ***Turning on DIIS***
  2   -514.6981245174  -0.057150644891 0.09232850  0.00320489  0.0412750 0.0000
  3   -514.7898726486  -0.091748131245 0.06840207  0.00139123  0.0549098 0.0000
  4   -514.8085814921  -0.018708843468 0.01236336  0.00034165  0.0213179 0.0000
  5   -514.8100722245  -0.001490732385 0.00565197  0.00012848  0.0060871 0.0000
                      *** Initiating the SOSCF procedure ***
                           *** Shutting down DIIS ***
                      *** Re-Reading the Fockian *** 
                      *** Removing any level shift *** 
ITER      Energy       Delta-E        Grad      Rot      Max-DP    RMS-DP
  6   -514.81015955  -0.0000873218  0.000320  0.000320  0.002582  0.000068
               *** Restarting incremental Fock matrix formation ***
  7   -514.81023870  -0.0000791498  0.000191  0.000875  0.001598  0.000041
  8   -514.81023501   0.0000036871  0.000379  0.000633  0.000938  0.000020
  9   -514.81024089  -0.0000058803  0.000076  0.000195  0.000392  0.000009
 10   -514.81024058   0.0000003130  0.000126  0.000132  0.000252  0.000006
 11   -514.81024102  -0.0000004397  0.000013  0.000056  0.000064  0.000002
 12   -514.81024101   0.0000000086  0.000021  0.000041  0.000036  0.000001
                  ***Gradient check signals convergence***
              ***Rediagonalizing the Fockian in SOSCF/NRSCF***

               *****************************************************
               *                     SUCCESS                       *
               *           SCF CONVERGED AFTER  13 CYCLES          *
               *****************************************************

Old exchange energy                            =    -13.537700539 Eh
New exchange energy                            =    -13.537749168 Eh
Exchange energy change after final integration =     -0.000048629 Eh
Total energy after final integration           =   -514.810289651 Eh
Final COS-X integration done in                =    17.658 sec

----------------
TOTAL SCF ENERGY
----------------

Total Energy       :         -514.81028965 Eh          -14008.70017 eV

Components:
Nuclear Repulsion  :          571.15151924 Eh           15541.82297 eV
Electronic Energy  :        -1085.96180889 Eh          -29550.52314 eV
One Electron Energy:        -1831.41499889 Eh          -49835.33570 eV
Two Electron Energy:          745.45319000 Eh           20284.81256 eV
Max COSX asymmetry :            0.00000798 Eh               0.00022 eV

Virial components:
Potential Energy   :        -1024.93498164 Eh          -27889.89875 eV
Kinetic Energy     :          510.12469199 Eh           13881.19858 eV
Virial Ratio       :            2.00918520


DFT components:
N(Alpha)           :       40.000010442000 electrons
N(Beta)            :       40.000010442000 electrons
N(Total)           :       80.000020883999 electrons
E(X)               :      -53.818854318068 Eh       
E(C)               :       -3.218806574879 Eh       
E(XC)              :      -57.037660892948 Eh       
DFET-embed. en.    :        0.000000000000 Eh       

---------------
SCF CONVERGENCE
---------------

  Last Energy change         ...   -1.4880e-08  Tolerance :   1.0000e-08
  Last MAX-Density change    ...    2.2204e-15  Tolerance :   1.0000e-07
  Last RMS-Density change    ...    4.0244e-17  Tolerance :   5.0000e-09
  Last Orbital Gradient      ...    2.1199e-06  Tolerance :   1.0000e-05
  Last Orbital Rotation      ...    8.9570e-06  Tolerance :   1.0000e-05

             **** THE GBW FILE WAS UPDATED (opt.gbw) ****
             **** DENSITY opt.scfp WAS UPDATED ****
             **** ENERGY FILE WAS UPDATED (opt.en.tmp) ****
             **** THE GBW FILE WAS UPDATED (opt.gbw) ****
             **** DENSITY opt.scfp WAS UPDATED ****
----------------
ORBITAL ENERGIES
----------------

  NO   OCC          E(Eh)            E(eV) 
   0   2.0000     -19.164086      -521.4813 
   1   2.0000     -19.088532      -519.4254 
   2   2.0000     -14.362677      -390.8283 
   3   2.0000     -10.284251      -279.8487 
   4   2.0000     -10.248216      -278.8681 
   5   2.0000     -10.239221      -278.6234 
   6   2.0000     -10.201551      -277.5983 
   7   2.0000     -10.198276      -277.5092 
   8   2.0000     -10.197984      -277.5012 
   9   2.0000     -10.192350      -277.3479 
  10   2.0000     -10.192332      -277.3474 
  11   2.0000      -1.051062       -28.6008 
  12   2.0000      -1.018981       -27.7279 
  13   2.0000      -0.927954       -25.2509 
  14   2.0000      -0.845737       -23.0137 
  15   2.0000      -0.756844       -20.5948 
  16   2.0000      -0.743836       -20.2408 
  17   2.0000      -0.732745       -19.9390 
  18   2.0000      -0.645814       -17.5735 
  19   2.0000      -0.619155       -16.8481 
  20   2.0000      -0.581526       -15.8241 
  21   2.0000      -0.555701       -15.1214 
  22   2.0000      -0.536607       -14.6018 
  23   2.0000      -0.485180       -13.2024 
  24   2.0000      -0.463917       -12.6238 
  25   2.0000      -0.460046       -12.5185 
  26   2.0000      -0.451428       -12.2840 
  27   2.0000      -0.436759       -11.8848 
  28   2.0000      -0.420179       -11.4336 
  29   2.0000      -0.417802       -11.3690 
  30   2.0000      -0.406735       -11.0678 
  31   2.0000      -0.392438       -10.6788 
  32   2.0000      -0.392087       -10.6692 
  33   2.0000      -0.374531       -10.1915 
  34   2.0000      -0.352994        -9.6055 
  35   2.0000      -0.348594        -9.4857 
  36   2.0000      -0.287598        -7.8259 
  37   2.0000      -0.267039        -7.2665 
  38   2.0000      -0.247402        -6.7322 
  39   2.0000      -0.208261        -5.6671 
  40   0.0000      -0.023200        -0.6313 
  41   0.0000      -0.006947        -0.1890 
  42   0.0000       0.042291         1.1508 
  43   0.0000       0.044750         1.2177 
  44   0.0000       0.054946         1.4952 
  45   0.0000       0.073154         1.9906 
  46   0.0000       0.083357         2.2682 
  47   0.0000       0.114460         3.1146 
  48   0.0000       0.125061         3.4031 
  49   0.0000       0.128194         3.4883 
  50   0.0000       0.145480         3.9587 
  51   0.0000       0.166466         4.5298 
  52   0.0000       0.169567         4.6142 
  53   0.0000       0.216696         5.8966 
  54   0.0000       0.219602         5.9757 
  55   0.0000       0.232437         6.3249 
  56   0.0000       0.260222         7.0810 
  57   0.0000       0.275152         7.4873 
  58   0.0000       0.289403         7.8750 
  59   0.0000       0.310160         8.4399 
  60   0.0000       0.315360         8.5814 
  61   0.0000       0.338530         9.2119 
  62   0.0000       0.355063         9.6617 
  63   0.0000       0.398923        10.8552 
  64   0.0000       0.405231        11.0269 
  65   0.0000       0.413732        11.2582 
  66   0.0000       0.449425        12.2295 
  67   0.0000       0.463432        12.6106 
  68   0.0000       0.467658        12.7256 
  69   0.0000       0.481682        13.1072 
  70   0.0000       0.482562        13.1312 
  71   0.0000       0.517675        14.0867 
  72   0.0000       0.527474        14.3533 
  73   0.0000       0.530279        14.4296 
  74   0.0000       0.532627        14.4935 
  75   0.0000       0.536561        14.6006 
  76   0.0000       0.557635        15.1740 
  77   0.0000       0.585643        15.9361 
  78   0.0000       0.593323        16.1451 
  79   0.0000       0.619922        16.8689 
  80   0.0000       0.624610        16.9965 
  81   0.0000       0.629749        17.1363 
  82   0.0000       0.634215        17.2579 
  83   0.0000       0.641209        17.4482 
  84   0.0000       0.657999        17.9051 
  85   0.0000       0.667268        18.1573 
  86   0.0000       0.674137        18.3442 
  87   0.0000       0.680688        18.5225 
  88   0.0000       0.699889        19.0450 
  89   0.0000       0.704101        19.1596 
  90   0.0000       0.711676        19.3657 
  91   0.0000       0.725198        19.7336 
  92   0.0000       0.743959        20.2442 
  93   0.0000       0.758820        20.6486 
  94   0.0000       0.789911        21.4946 
  95   0.0000       0.800935        21.7945 
  96   0.0000       0.846398        23.0317 
  97   0.0000       0.863382        23.4938 
  98   0.0000       0.873751        23.7760 
  99   0.0000       0.911113        24.7926 
 100   0.0000       0.922348        25.0984 
 101   0.0000       0.979478        26.6529 
 102   0.0000       0.981066        26.6962 
 103   0.0000       1.011464        27.5233 
 104   0.0000       1.033846        28.1324 
 105   0.0000       1.042736        28.3743 
 106   0.0000       1.078873        29.3576 
 107   0.0000       1.091254        29.6945 
 108   0.0000       1.180477        32.1224 
 109   0.0000       1.187177        32.3047 
 110   0.0000       1.206290        32.8248 
 111   0.0000       1.214105        33.0375 
 112   0.0000       1.235475        33.6190 
 113   0.0000       1.240548        33.7570 
 114   0.0000       1.257740        34.2248 
 115   0.0000       1.277100        34.7517 
 116   0.0000       1.278776        34.7973 
 117   0.0000       1.304204        35.4892 
 118   0.0000       1.336323        36.3632 
 119   0.0000       1.367049        37.1993 
 120   0.0000       1.385902        37.7123 
 121   0.0000       1.431740        38.9596 
 122   0.0000       1.440621        39.2013 
 123   0.0000       1.507736        41.0276 
 124   0.0000       1.516545        41.2673 
 125   0.0000       1.531190        41.6658 
 126   0.0000       1.572939        42.8018 
 127   0.0000       1.596560        43.4446 
 128   0.0000       1.596713        43.4488 
 129   0.0000       1.655132        45.0384 
 130   0.0000       1.672055        45.4989 
 131   0.0000       1.694918        46.1211 
 132   0.0000       1.714983        46.6670 
 133   0.0000       1.735386        47.2223 
 134   0.0000       1.736031        47.2398 
 135   0.0000       1.747233        47.5446 
 136   0.0000       1.766836        48.0781 
 137   0.0000       1.781808        48.4855 
 138   0.0000       1.792397        48.7736 
 139   0.0000       1.802859        49.0583 
 140   0.0000       1.805191        49.1217 
 141   0.0000       1.813728        49.3540 
 142   0.0000       1.858218        50.5647 
 143   0.0000       1.860754        50.6337 
 144   0.0000       1.874986        51.0210 
 145   0.0000       1.911114        52.0041 
 146   0.0000       1.942772        52.8655 
 147   0.0000       1.973343        53.6974 
 148   0.0000       1.990757        54.1712 
 149   0.0000       2.031465        55.2790 
 150   0.0000       2.066411        56.2299 
 151   0.0000       2.075148        56.4676 
 152   0.0000       2.077958        56.5441 
 153   0.0000       2.091879        56.9229 
 154   0.0000       2.114985        57.5517 
 155   0.0000       2.124110        57.8000 
 156   0.0000       2.146974        58.4221 
 157   0.0000       2.174778        59.1787 
 158   0.0000       2.202992        59.9465 
 159   0.0000       2.224223        60.5242 
 160   0.0000       2.253984        61.3340 
 161   0.0000       2.281331        62.0782 
 162   0.0000       2.333786        63.5056 
 163   0.0000       2.339339        63.6567 
 164   0.0000       2.350164        63.9512 
 165   0.0000       2.362704        64.2925 
 166   0.0000       2.382466        64.8302 
 167   0.0000       2.424192        65.9656 
 168   0.0000       2.477020        67.4031 
 169   0.0000       2.507335        68.2281 
 170   0.0000       2.561848        69.7114 
 171   0.0000       2.600729        70.7694 
 172   0.0000       2.613485        71.1165 
 173   0.0000       2.640688        71.8568 
 174   0.0000       2.642761        71.9132 
 175   0.0000       2.653364        72.2017 
 176   0.0000       2.723707        74.1158 
 177   0.0000       2.733558        74.3839 
 178   0.0000       2.755255        74.9743 
 179   0.0000       2.775651        75.5293 
 180   0.0000       2.788535        75.8799 
 181   0.0000       2.853772        77.6551 
 182   0.0000       2.865243        77.9672 
 183   0.0000       2.913127        79.2702 
 184   0.0000       2.943293        80.0911 
 185   0.0000       2.945428        80.1492 
 186   0.0000       2.967229        80.7424 
 187   0.0000       2.985028        81.2267 
 188   0.0000       3.070948        83.5647 
 189   0.0000       3.082172        83.8702 
 190   0.0000       3.129744        85.1647 
 191   0.0000       3.159267        85.9680 
 192   0.0000       3.269627        88.9711 
 193   0.0000       3.370257        91.7094 
 194   0.0000       3.474550        94.5473 
 195   0.0000       3.509435        95.4966 
 196   0.0000       3.609151        98.2100 
 197   0.0000       3.667297        99.7922 
 198   0.0000       3.821410       103.9858 

                    ********************************
                    * MULLIKEN POPULATION ANALYSIS *
                    ********************************

-----------------------
MULLIKEN ATOMIC CHARGES
-----------------------
   0 C :    0.171278
   1 C :   -0.032463
   2 C :   -0.055077
   3 C :    0.192424
   4 C :   -0.034593
   5 C :   -0.060348
   6 H :   -0.033100
   7 H :   -0.039081
   8 H :   -0.045287
   9 H :   -0.020110
  10 O :   -0.198699
  11 H :    0.174775
  12 N :   -0.028952
  13 C :   -0.002558
  14 H :    0.116588
  15 C :    0.048811
  16 H :    0.042204
  17 H :    0.043010
  18 H :    0.028139
  19 O :   -0.266960
Sum of atomic charges:   -0.0000000

--------------------------------
MULLIKEN REDUCED ORBITAL CHARGES
--------------------------------
  0 C s       :     2.931263  s :     2.931263
      pz      :     1.017549  p :     2.839690
      px      :     0.956470
      py      :     0.865671
      dz2     :     0.004312  d :     0.057769
      dxz     :     0.006911
      dyz     :     0.012819
      dx2y2   :     0.018588
      dxy     :     0.015139
  1 C s       :     3.227371  s :     3.227371
      pz      :     1.028585  p :     2.771422
      px      :     0.892219
      py      :     0.850619
      dz2     :     0.002700  d :     0.033670
      dxz     :     0.005009
      dyz     :     0.004423
      dx2y2   :     0.010162
      dxy     :     0.011377
  2 C s       :     3.220228  s :     3.220228
      pz      :     1.058852  p :     2.801164
      px      :     0.790865
      py      :     0.951447
      dz2     :     0.002707  d :     0.033685
      dxz     :     0.002467
      dyz     :     0.006839
      dx2y2   :     0.010705
      dxy     :     0.010968
  3 C s       :     2.941409  s :     2.941409
      pz      :     0.985978  p :     2.789582
      px      :     1.003578
      py      :     0.800027
      dz2     :     0.005453  d :     0.076585
      dxz     :     0.008101
      dyz     :     0.016287
      dx2y2   :     0.024008
      dxy     :     0.022735
  4 C s       :     3.248301  s :     3.248301
      pz      :     1.026586  p :     2.753012
      px      :     0.918219
      py      :     0.808208
      dz2     :     0.002643  d :     0.033280
      dxz     :     0.004904
      dyz     :     0.004212
      dx2y2   :     0.010907
      dxy     :     0.010614
  5 C s       :     3.264380  s :     3.264380
      pz      :     1.026504  p :     2.761903
      px      :     0.792581
      py      :     0.942819
      dz2     :     0.002683  d :     0.034065
      dxz     :     0.002435
      dyz     :     0.007045
      dx2y2   :     0.011358
      dxy     :     0.010544
  6 H s       :     1.009798  s :     1.009798
      pz      :     0.005184  p :     0.023302
      px      :     0.008478
      py      :     0.009640
  7 H s       :     1.015588  s :     1.015588
      pz      :     0.005369  p :     0.023493
      px      :     0.014537
      py      :     0.003587
  8 H s       :     1.020799  s :     1.020799
      pz      :     0.005408  p :     0.024488
      px      :     0.015152
      py      :     0.003929
  9 H s       :     0.996948  s :     0.996948
      pz      :     0.004876  p :     0.023162
      px      :     0.007895
      py      :     0.010390
 10 O s       :     3.672090  s :     3.672090
      pz      :     1.830476  p :     4.512557
      px      :     1.250159
      py      :     1.431921
      dz2     :     0.002098  d :     0.014051
      dxz     :     0.000443
      dyz     :     0.002571
      dx2y2   :     0.006953
      dxy     :     0.001987
 11 H s       :     0.756977  s :     0.756977
      pz      :     0.018077  p :     0.068248
      px      :     0.036330
      py      :     0.013842
 12 N s       :     3.312477  s :     3.312477
      pz      :     1.627423  p :     3.695755
      px      :     1.050354
      py      :     1.017978
      dz2     :     0.001997  d :     0.020720
      dxz     :     0.001932
      dyz     :     0.003426
      dx2y2   :     0.005294
      dxy     :     0.008071
 13 C s       :     3.095209  s :     3.095209
      pz      :     0.845111  p :     2.792559
      px      :     1.033706
      py      :     0.913742
      dz2     :     0.006170  d :     0.114791
      dxz     :     0.010589
      dyz     :     0.023506
      dx2y2   :     0.026890
      dxy     :     0.047635
 14 H s       :     0.839644  s :     0.839644
      pz      :     0.010848  p :     0.043767
      px      :     0.016940
      py      :     0.015980
 15 C s       :     2.932254  s :     2.932254
      pz      :     0.990867  p :     2.993208
      px      :     0.990790
      py      :     1.011550
      dz2     :     0.005848  d :     0.025727
      dxz     :     0.001527
      dyz     :     0.007129
      dx2y2   :     0.003853
      dxy     :     0.007370
 16 H s       :     0.933304  s :     0.933304
      pz      :     0.011488  p :     0.024491
      px      :     0.004732
      py      :     0.008271
 17 H s       :     0.932479  s :     0.932479
      pz      :     0.011548  p :     0.024511
      px      :     0.004801
      py      :     0.008162
 18 H s       :     0.948812  s :     0.948812
      pz      :     0.004734  p :     0.023049
      px      :     0.008741
      py      :     0.009575
 19 O s       :     3.753244  s :     3.753244
      pz      :     1.411713  p :     4.496861
      px      :     1.776065
      py      :     1.309082
      dz2     :     0.001950  d :     0.016855
      dxz     :     0.000027
      dyz     :     0.005301
      dx2y2   :     0.006120
      dxy     :     0.003457


                     *******************************
                     * LOEWDIN POPULATION ANALYSIS *
                     *******************************

----------------------
LOEWDIN ATOMIC CHARGES
----------------------
   0 C :    0.009241
   1 C :   -0.034918
   2 C :   -0.066245
   3 C :    0.035967
   4 C :   -0.037833
   5 C :   -0.041594
   6 H :    0.025481
   7 H :    0.024991
   8 H :    0.026601
   9 H :    0.033811
  10 O :   -0.060918
  11 H :    0.093165
  12 N :    0.016714
  13 C :    0.070286
  14 H :    0.087353
  15 C :   -0.071988
  16 H :    0.039404
  17 H :    0.039738
  18 H :    0.044273
  19 O :   -0.233531

-------------------------------
LOEWDIN REDUCED ORBITAL CHARGES
-------------------------------
  0 C s       :     2.826876  s :     2.826876
      pz      :     1.004534  p :     3.022993
      px      :     1.071227
      py      :     0.947233
      dz2     :     0.009588  d :     0.140890
      dxz     :     0.014172
      dyz     :     0.026655
      dx2y2   :     0.050299
      dxy     :     0.040176
  1 C s       :     2.858398  s :     2.858398
      pz      :     1.010028  p :     3.088125
      px      :     1.030790
      py      :     1.047308
      dz2     :     0.006302  d :     0.088394
      dxz     :     0.010359
      dyz     :     0.009014
      dx2y2   :     0.029677
      dxy     :     0.033043
  2 C s       :     2.856716  s :     2.856716
      pz      :     1.031567  p :     3.119644
      px      :     1.027797
      py      :     1.060280
      dz2     :     0.006712  d :     0.089885
      dxz     :     0.004176
      dyz     :     0.014776
      dx2y2   :     0.032235
      dxy     :     0.031985
  3 C s       :     2.832931  s :     2.832931
      pz      :     0.972534  p :     2.956439
      px      :     1.079747
      py      :     0.904158
      dz2     :     0.011549  d :     0.174663
      dxz     :     0.016533
      dyz     :     0.032520
      dx2y2   :     0.059835
      dxy     :     0.054227
  4 C s       :     2.857871  s :     2.857871
      pz      :     1.006174  p :     3.092060
      px      :     1.041131
      py      :     1.044755
      dz2     :     0.006471  d :     0.087901
      dxz     :     0.009998
      dyz     :     0.008426
      dx2y2   :     0.031645
      dxy     :     0.031362
  5 C s       :     2.853722  s :     2.853722
      pz      :     1.008581  p :     3.098192
      px      :     1.037196
      py      :     1.052416
      dz2     :     0.006370  d :     0.089680
      dxz     :     0.004156
      dyz     :     0.015151
      dx2y2   :     0.033305
      dxy     :     0.030697
  6 H s       :     0.905780  s :     0.905780
      pz      :     0.015770  p :     0.068739
      px      :     0.025297
      py      :     0.027672
  7 H s       :     0.905817  s :     0.905817
      pz      :     0.016489  p :     0.069192
      px      :     0.041104
      py      :     0.011598
  8 H s       :     0.900345  s :     0.900345
      pz      :     0.016460  p :     0.073053
      px      :     0.044151
      py      :     0.012442
  9 H s       :     0.897100  s :     0.897100
      pz      :     0.015486  p :     0.069089
      px      :     0.023900
      py      :     0.029702
 10 O s       :     3.419484  s :     3.419484
      pz      :     1.794919  p :     4.614556
      px      :     1.345788
      py      :     1.473849
      dz2     :     0.004083  d :     0.026878
      dxz     :     0.000349
      dyz     :     0.003646
      dx2y2   :     0.014892
      dxy     :     0.003907
 11 H s       :     0.733454  s :     0.733454
      pz      :     0.047927  p :     0.173382
      px      :     0.091956
      py      :     0.033499
 12 N s       :     3.046504  s :     3.046504
      pz      :     1.563198  p :     3.881005
      px      :     1.170176
      py      :     1.147632
      dz2     :     0.004644  d :     0.055776
      dxz     :     0.003933
      dyz     :     0.006566
      dx2y2   :     0.015650
      dxy     :     0.024984
 13 C s       :     2.842234  s :     2.842234
      pz      :     0.830798  p :     2.832886
      px      :     0.995811
      py      :     1.006278
      dz2     :     0.014052  d :     0.254593
      dxz     :     0.020622
      dyz     :     0.043961
      dx2y2   :     0.063809
      dxy     :     0.112149
 14 H s       :     0.790392  s :     0.790392
      pz      :     0.036098  p :     0.122255
      px      :     0.045906
      py      :     0.040251
 15 C s       :     2.841032  s :     2.841032
      pz      :     1.055318  p :     3.161519
      px      :     1.035952
      py      :     1.070249
      dz2     :     0.016001  d :     0.069437
      dxz     :     0.003535
      dyz     :     0.018688
      dx2y2   :     0.009902
      dxy     :     0.021310
 16 H s       :     0.892088  s :     0.892088
      pz      :     0.032214  p :     0.068508
      px      :     0.013857
      py      :     0.022437
 17 H s       :     0.891766  s :     0.891766
      pz      :     0.032443  p :     0.068496
      px      :     0.013997
      py      :     0.022057
 18 H s       :     0.890251  s :     0.890251
      pz      :     0.011786  p :     0.065476
      px      :     0.027260
      py      :     0.026431
 19 O s       :     3.560749  s :     3.560749
      pz      :     1.412935  p :     4.643609
      px      :     1.790982
      py      :     1.439692
      dz2     :     0.004142  d :     0.029172
      dxz     :     0.000030
      dyz     :     0.006638
      dx2y2   :     0.012858
      dxy     :     0.005505


                      *****************************
                      * MAYER POPULATION ANALYSIS *
                      *****************************

  NA   - Mulliken gross atomic population
  ZA   - Total nuclear charge
  QA   - Mulliken gross atomic charge
  VA   - Mayer's total valence
  BVA  - Mayer's bonded valence
  FA   - Mayer's free valence

  ATOM       NA         ZA         QA         VA         BVA        FA
  0 C      5.8287     6.0000     0.1713     3.8596     3.8596     0.0000
  1 C      6.0325     6.0000    -0.0325     3.8272     3.8272    -0.0000
  2 C      6.0551     6.0000    -0.0551     3.8140     3.8140    -0.0000
  3 C      5.8076     6.0000     0.1924     3.9681     3.9681     0.0000
  4 C      6.0346     6.0000    -0.0346     3.8495     3.8495     0.0000
  5 C      6.0603     6.0000    -0.0603     3.8297     3.8297    -0.0000
  6 H      1.0331     1.0000    -0.0331     0.9877     0.9877    -0.0000
  7 H      1.0391     1.0000    -0.0391     0.9880     0.9880    -0.0000
  8 H      1.0453     1.0000    -0.0453     1.0152     1.0152     0.0000
  9 H      1.0201     1.0000    -0.0201     0.9930     0.9930     0.0000
 10 O      8.1987     8.0000    -0.1987     2.2255     2.2255    -0.0000
 11 H      0.8252     1.0000     0.1748     1.0113     1.0113    -0.0000
 12 N      7.0290     7.0000    -0.0290     3.1627     3.1627    -0.0000
 13 C      6.0026     6.0000    -0.0026     4.4277     4.4277    -0.0000
 14 H      0.8834     1.0000     0.1166     1.0307     1.0307    -0.0000
 15 C      5.9512     6.0000     0.0488     3.8792     3.8792    -0.0000
 16 H      0.9578     1.0000     0.0422     0.9940     0.9940     0.0000
 17 H      0.9570     1.0000     0.0430     0.9938     0.9938     0.0000
 18 H      0.9719     1.0000     0.0281     1.0210     1.0210     0.0000
 19 O      8.2670     8.0000    -0.2670     2.2339     2.2339    -0.0000

  Mayer bond orders larger than 0.100000
B(  0-C ,  1-C ) :   1.3316 B(  0-C ,  5-C ) :   1.3310 B(  0-C , 12-N ) :   1.0822 
B(  1-C ,  2-C ) :   1.3915 B(  1-C ,  6-H ) :   0.9803 B(  2-C ,  3-C ) :   1.3149 
B(  2-C ,  7-H ) :   0.9844 B(  3-C ,  4-C ) :   1.3614 B(  3-C , 10-O ) :   1.1785 
B(  4-C ,  5-C ) :   1.3672 B(  4-C ,  9-H ) :   0.9908 B(  5-C ,  8-H ) :   0.9954 
B( 10-O , 11-H ) :   0.9648 B( 12-N , 13-C ) :   1.1490 B( 12-N , 14-H ) :   0.8974 
B( 13-C , 15-C ) :   1.0577 B( 13-C , 19-O ) :   2.0642 B( 15-C , 16-H ) :   0.9390 
B( 15-C , 17-H ) :   0.9386 B( 15-C , 18-H ) :   0.9409 

-------
TIMINGS
-------

Total SCF time: 0 days 0 hours 2 min 26 sec 

Total time                  ....     146.655 sec
Sum of individual times     ....     146.032 sec  ( 99.6%)

Fock matrix formation       ....     140.702 sec  ( 95.9%)
  Split-RI-J                ....      12.081 sec  (  8.6% of F)
  Chain of spheres X        ....     108.500 sec  ( 77.1% of F)
  XC integration            ....      19.972 sec  ( 14.2% of F)
    Basis function eval.    ....       7.663 sec  ( 38.4% of XC)
    Density eval.           ....       5.462 sec  ( 27.3% of XC)
    XC-Functional eval.     ....       1.538 sec  (  7.7% of XC)
    XC-Potential eval.      ....       4.258 sec  ( 21.3% of XC)
Diagonalization             ....       0.087 sec  (  0.1%)
Density matrix formation    ....       0.019 sec  (  0.0%)
Population analysis         ....       0.034 sec  (  0.0%)
Initial guess               ....       0.829 sec  (  0.6%)
Orbital Transformation      ....       0.000 sec  (  0.0%)
Orbital Orthonormalization  ....       0.000 sec  (  0.0%)
DIIS solution               ....       0.107 sec  (  0.1%)
SOSCF solution              ....       0.121 sec  (  0.1%)
Grid generation             ....       4.133 sec  (  2.8%)

Maximum memory used throughout the entire SCF-calculation: 80.6 MB


-------------------------------------------------------------------------------
                          DFT DISPERSION CORRECTION                            
                                                                               
                                 DFTD4 V2.5                                    
-------------------------------------------------------------------------------
The B3LYP functional is recognized
Active option DFTDOPT                   ...         5   

Starting D4
-------------------------   ----------------
Dispersion correction           -0.033272642
-------------------------   ----------------


-------------------------   --------------------
FINAL SINGLE POINT ENERGY      -514.843562293100
-------------------------   --------------------

------------------------------------------------------------------------------
                         ORCA SCF GRADIENT CALCULATION
------------------------------------------------------------------------------

 ... reading COSX grid (gridx3)
Gradient of the Kohn-Sham DFT energy:
Kohn-Sham wavefunction type      ... RKS
Hartree-Fock exchange scaling    ...    0.200
Number of operators              ...    1
Number of atoms                  ...   20
Basis set dimensions             ...  199
Integral neglect threshold       ... 2.5e-11
Integral primitive cutoff        ... 2.5e-12
SHARK Integral package           ... ON

Nuc. rep. gradient       (SHARK) ... done (  0.0 sec)
HCore & Overlap gradient (SHARK) ... done (  0.3 sec)
RI-J gradient            (SHARK) ... done (  2.3 sec)
COSX-gradient                    ... done ( 23.3 sec)
Exchange-correlation gradient    ... done
Dispersion correction            ... Starting D4


------------------- 
Dispersion Gradient 
------------------- 
   1  :   -0.000254486    0.000064270    0.000001280
   2  :   -0.000567299    0.000199189   -0.000002328
   3  :   -0.000551605   -0.000170127   -0.000002351
   4  :   -0.000174807   -0.000446820    0.000000214
   5  :    0.000247448   -0.000565029    0.000003708
   6  :    0.000258151   -0.000419989    0.000005488
   7  :   -0.000201166    0.000109359   -0.000001199
   8  :   -0.000203170   -0.000017679   -0.000001013
   9  :    0.000181960   -0.000138847    0.000002678
  10  :    0.000123367   -0.000166152    0.000001176
  11  :   -0.000236688   -0.000595655    0.000000032
  12  :   -0.000047347   -0.000115467   -0.000000014
  13  :   -0.000043933    0.000520876    0.000000798
  14  :    0.000324010    0.000574195   -0.000001165
  15  :   -0.000148776    0.000245046    0.000000594
  16  :    0.000668979    0.000200882   -0.000004798
  17  :    0.000231195    0.000062921   -0.000084505
  18  :    0.000231937    0.000063247    0.000081202
  19  :    0.000121042    0.000052370   -0.000001247
  20  :    0.000041188    0.000543412    0.000001449

  |G| =    0.001985373

done

------------------
CARTESIAN GRADIENT
------------------

   1   C   :    0.007203599   -0.010458437    0.000052267
   2   C   :    0.003714336    0.010449288    0.000094162
   3   C   :   -0.006268882   -0.019529806   -0.000020090
   4   C   :    0.005633290    0.018643458    0.000004828
   5   C   :   -0.006377977   -0.012528879    0.000002963
   6   C   :   -0.000910248    0.015143804   -0.000115968
   7   H   :    0.000473162   -0.004469967    0.000015869
   8   H   :    0.005613325    0.002154099    0.000014422
   9   H   :   -0.004016550   -0.004183064    0.000027729
  10   H   :   -0.000867705    0.002966665   -0.000017099
  11   O   :    0.005187470    0.001844768    0.000028019
  12   H   :   -0.005338397    0.001160945   -0.000034148
  13   N   :    0.003915091    0.011378263   -0.000019726
  14   C   :   -0.006365333   -0.039267761   -0.000051573
  15   H   :    0.002178694    0.000108845   -0.000092412
  16   C   :   -0.003644297   -0.001105664    0.000298545
  17   H   :   -0.001037409    0.008314004    0.001428270
  18   H   :   -0.001113042    0.008227271   -0.001573030
  19   H   :    0.002374034   -0.004002168   -0.000127249
  20   O   :   -0.000357720    0.015006799    0.000079399

Difference to translation invariance:
           :   -0.0000045595   -0.0001475371   -0.0000048231

Difference to rotation invariance:
           :   -0.0000504383   -0.0000016646    0.0011890523

Norm of the cartesian gradient     ...    0.0617178993
RMS gradient                       ...    0.0079677465
MAX gradient                       ...    0.0392677613

-------
TIMINGS
-------

Total SCF gradient time            ...       35.606 sec

One electron gradient       ....       0.329 sec  (  0.9%)
RI-J Coulomb gradient       ....       2.266 sec  (  6.4%)
COSX gradient               ....      23.333 sec  ( 65.5%)
XC gradient                 ....       8.824 sec  ( 24.8%)

Maximum memory used throughout the entire SCFGRAD-calculation: 65.1 MB
------------------------------------------------------------------------------
                         ORCA GEOMETRY RELAXATION STEP
------------------------------------------------------------------------------

Reading the OPT-File                    .... done
Getting information on internals        .... done
Copying old internal coords+grads       .... done
Making the new internal coordinates     .... (new redundants).... done
Validating the new internal coordinates .... (new redundants).... done
Calculating the B-matrix                .... done
Calculating the G,G- and P matrices     .... done
Transforming gradient to internals      .... done
Projecting the internal gradient        .... done
Number of atoms                         ....  20
Number of internal coordinates          ....  91
Current Energy                          ....  -514.843562293 Eh
Current gradient norm                   ....     0.061717899 Eh/bohr
Maximum allowed component of the step   ....  0.300
Current trust radius                    ....  0.300
Evaluating the initial hessian          ....  (Almloef) done
Projecting the Hessian                  .... done
Forming the augmented Hessian           .... done
Diagonalizing the augmented Hessian     .... done
Last element of RFO vector              ....  0.996122555
Lowest eigenvalues of augmented Hessian:
 -0.003224797  0.013046492  0.020194460  0.022027549  0.024139188
Length of the computed step             ....  0.088318902
The final length of the internal step   ....  0.088318902
Converting the step to cartesian space:
 Initial RMS(Int)=    0.0092583366
Transforming coordinates:
 Iter   0:  RMS(Cart)=    0.0226092374 RMS(Int)=    1.1408049711
 Iter   1:  RMS(Cart)=    0.0003180300 RMS(Int)=    0.0001280661
 Iter   2:  RMS(Cart)=    0.0000065309 RMS(Int)=    0.0000031506
 Iter   3:  RMS(Cart)=    0.0000001858 RMS(Int)=    0.0000000775
 Iter   4:  RMS(Cart)=    0.0000000040 RMS(Int)=    0.0000000020
done
Storing new coordinates                 .... done

                                .--------------------.
          ----------------------|Geometry convergence|-------------------------
          Item                value                   Tolerance       Converged
          ---------------------------------------------------------------------
          RMS gradient        0.0041665690            0.0001000000      NO
          MAX gradient        0.0151504719            0.0003000000      NO
          RMS step            0.0092583366            0.0020000000      NO
          MAX step            0.0292309396            0.0040000000      NO
          ........................................................
          Max(Bonds)      0.0128      Max(Angles)    1.67
          Max(Dihed)        0.72      Max(Improp)    0.00
          ---------------------------------------------------------------------

The optimization has not yet converged - more geometry cycles are needed


    ---------------------------------------------------------------------------
                         Redundant Internal Coordinates
                            (Angstroem and degrees)

        Definition                    Value    dE/dq     Step     New-Value
    ----------------------------------------------------------------------------
     1. B(C   1,C   0)                1.4058 -0.001736  0.0014    1.4072   
     2. B(C   2,C   1)                1.3987  0.003218 -0.0028    1.3958   
     3. B(C   3,C   2)                1.3864 -0.013126  0.0110    1.3975   
     4. B(C   4,C   3)                1.3873 -0.008956  0.0076    1.3949   
     5. B(C   5,C   0)                1.3944 -0.008886  0.0075    1.4019   
     6. B(C   5,C   4)                1.4011  0.002534 -0.0022    1.3990   
     7. B(H   6,C   1)                1.0881 -0.003661  0.0053    1.0934   
     8. B(H   7,C   2)                1.0853 -0.005877  0.0084    1.0937   
     9. B(H   8,C   5)                1.0799 -0.004423  0.0062    1.0861   
    10. B(H   9,C   4)                1.0870 -0.002846  0.0041    1.0911   
    11. B(O  10,C   3)                1.3618 -0.002827  0.0024    1.3642   
    12. B(H  11,O  10)                0.9713  0.005329 -0.0056    0.9657   
    13. B(N  12,C   0)                1.4064 -0.002296  0.0023    1.4087   
    14. B(C  13,N  12)                1.3609 -0.015150  0.0128    1.3737   
    15. B(H  14,N  12)                1.0144 -0.001577  0.0019    1.0163   
    16. B(C  15,C  13)                1.4981 -0.008381  0.0105    1.5086   
    17. B(H  16,C  15)                1.0923 -0.005900  0.0087    1.1009   
[...]
     34       0.385590   0.148579  -0.004483   0.000056   0.000000   0.005588
     35      -0.000795  -0.000119   0.000047   0.000001   0.000057   0.000030
     36      -0.061450  -0.017456  -0.029079  -0.000214   0.000002  -0.000192
     37      -0.003356  -0.042752  -0.091163   0.000379  -0.000004  -0.000129
     38       0.000203  -0.000049  -0.000196   0.000002   0.000118  -0.000002
     39       0.021676  -0.007136  -0.057592   0.001990  -0.000025   0.000124
     40      -0.021032  -0.009688   0.634454  -0.000475   0.000010   0.000292
     41      -0.000428   0.000050   0.003098  -0.000029  -0.000363   0.000000
     42       0.193878   0.057770   0.378025   0.000340   0.000033   0.002023
     43       0.312596   0.056002   0.421481  -0.001332  -0.000023   0.002826
     44      -0.000983   0.000163  -0.001301  -0.000002  -0.000299   0.000033
     45      -0.006011   0.002958   0.024181  -0.035332  -0.001159  -0.000026
     46       0.000640  -0.000590  -0.053107   0.038233  -0.000248  -0.000068
     47       0.000028  -0.000014  -0.000523   0.000143  -0.092872   0.000004
     48       0.005103  -0.001450   0.073200   0.040943  -0.049123  -0.000100
     49       0.018114   0.009974  -0.110228  -0.371593   0.422953   0.000170
     50      -0.009490  -0.010255   0.050671  -0.521283   0.559773   0.000395
     51       0.006874  -0.001655   0.068776   0.058821   0.068372  -0.000118
     52       0.019030   0.009917  -0.109617  -0.365557  -0.415540   0.000192
     53       0.009331   0.010119  -0.051121   0.526847   0.564901  -0.000430
     54       0.004970   0.005822  -0.180045   0.296823  -0.005207  -0.000173
     55      -0.010785  -0.003299   0.194994   0.287333  -0.004661   0.000071
     56       0.000944  -0.000382   0.002180  -0.006880  -0.014617   0.000004
     57      -0.001431   0.003643   0.021756  -0.000083  -0.000005  -0.000015
     58       0.020171   0.011246  -0.386363  -0.000465   0.000002  -0.000075
     59       0.000135  -0.000001  -0.001810   0.000000  -0.000206  -0.000000
                 54         55         56         57         58         59    
      0       0.000175  -0.003504  -0.000154  -0.002141   0.000193  -0.000017
      1      -0.000001  -0.001876   0.000313   0.003128   0.000576  -0.000109
      2      -0.000000  -0.000026  -0.000002  -0.000030   0.000004  -0.000000
      3      -0.000753   0.047535  -0.001996  -0.000375   0.000062  -0.000065
      4       0.000933  -0.057975   0.002490  -0.000423   0.000462  -0.000068
      5      -0.000010   0.000574  -0.000023  -0.000005   0.000003  -0.000001
      6      -0.000692   0.047197  -0.000485  -0.000893  -0.000121   0.001103
      7      -0.000139   0.009955   0.000367  -0.000013  -0.000031   0.000697
      8      -0.000006   0.000395  -0.000004  -0.000008   0.000001   0.000009
      9       0.000044  -0.001482  -0.003894  -0.000973  -0.000001  -0.002267
     10      -0.000050   0.002969  -0.001924  -0.000363  -0.000025   0.001063
     11       0.000000  -0.000019  -0.000031  -0.000008   0.000002  -0.000022
     12       0.000545   0.001413   0.056046   0.004367   0.000037   0.000789
     13      -0.000589  -0.002345  -0.066433  -0.009464  -0.000137   0.000142
     14       0.000007   0.000020   0.000691   0.000063   0.000002   0.000007
     15      -0.002905  -0.000102  -0.007140   0.085363  -0.000231  -0.000178
     16      -0.000533   0.000740   0.002494   0.011059   0.000776   0.000026
     17      -0.000025  -0.000004  -0.000087   0.000919  -0.000008  -0.000001
     18       0.008577  -0.547780   0.021803  -0.000602  -0.000808  -0.000208
     19      -0.010142   0.640842  -0.025496   0.001561  -0.001560   0.000713
     20       0.000103  -0.006582   0.000261  -0.000005  -0.000045  -0.000003
     21       0.007444  -0.522364   0.005284   0.007671   0.000310  -0.004505
     22       0.001177  -0.084085   0.000408   0.001179  -0.000082  -0.002619
     23       0.000064  -0.004437   0.000044   0.000069  -0.000009  -0.000034
     24       0.033511   0.000918   0.097748  -0.980629   0.001496   0.000468
     25       0.005551  -0.001224   0.010940  -0.141247  -0.000235  -0.000262
     26       0.000333   0.000012   0.001028  -0.010188   0.000018   0.000006
     27      -0.006850  -0.019835  -0.634713  -0.059475  -0.000446   0.000257
     28       0.008231   0.024854   0.760512   0.074583   0.000459   0.000413
     29      -0.000081  -0.000247  -0.007884  -0.000744  -0.000012   0.000002
     30      -0.000014   0.000226   0.000413   0.000091  -0.000052  -0.062105
     31      -0.000015  -0.000489   0.000165   0.000117   0.000078  -0.004588
     32      -0.000000   0.000003   0.000003   0.000001  -0.000002  -0.000542
     33      -0.000049  -0.003647  -0.000343   0.000669   0.001261   0.996665
     34       0.000087  -0.002584   0.002097   0.000423   0.000045   0.051635
     35      -0.000001  -0.000029  -0.000008   0.000004   0.000014   0.008735
     36       0.000465   0.000294  -0.000123   0.000478   0.055857   0.000081
     37       0.000095   0.000105  -0.000096  -0.000119  -0.045604   0.000223
     38       0.000002  -0.000003   0.000001   0.000001  -0.000499  -0.000000
     39      -0.000324  -0.000194   0.000122  -0.000190   0.000780  -0.000166
     40      -0.002121   0.000120   0.000143  -0.000174  -0.000608  -0.000153
     41       0.000002   0.000003  -0.000001   0.000010  -0.000011  -0.000000
     42       0.000154   0.002240   0.000546  -0.001662  -0.778420   0.001001
     43      -0.000061   0.004250  -0.000866  -0.000362   0.623540  -0.000710
     44      -0.000005   0.000048  -0.000010   0.000029   0.006987   0.000002
     45      -0.051494  -0.000744   0.000484  -0.000220  -0.000462   0.000005
     46      -0.077828  -0.001211   0.001126  -0.002366   0.000264  -0.000002
     47       0.000760   0.000022  -0.000020  -0.000002   0.000000   0.000000
     48      -0.025123  -0.000474   0.000483  -0.000684  -0.000221   0.000002
     49       0.161450   0.002537  -0.003929   0.016142  -0.000583  -0.000059
     50       0.235123   0.003955  -0.005310   0.017293  -0.000623  -0.000015
     51      -0.032376  -0.000609   0.000659  -0.001162  -0.000192   0.000008
     52       0.152609   0.002498  -0.003922   0.016058  -0.000607  -0.000058
     53      -0.229154  -0.003994   0.005404  -0.017324   0.000675   0.000014
     54       0.664748   0.009492  -0.008184   0.015170   0.000108   0.000076
     55       0.623560   0.009176  -0.008012   0.015951   0.000222   0.000049
     56      -0.014999  -0.000214   0.000184  -0.000319   0.000015  -0.000001
     57       0.000245   0.000036  -0.000019   0.000033  -0.000094   0.000022
     58       0.000860   0.000083  -0.000070  -0.000062  -0.000249   0.000102
     59      -0.000005  -0.000001  -0.000000  -0.000002   0.000000   0.000000


-----------
IR SPECTRUM
-----------

 Mode   freq       eps      Int      T**2         TX        TY        TZ
       cm**-1   L/(mol*cm) km/mol    a.u.
----------------------------------------------------------------------------
  7:     69.99   0.000354    1.79  0.001578  (-0.000317  0.000296 -0.039722)
  8:    165.50   0.000333    1.68  0.000627  ( 0.024869  0.000727  0.002847)
  9:    173.50   0.000210    1.06  0.000377  (-0.004829 -0.000600  0.018804)
 10:    265.86   0.000444    2.24  0.000521  (-0.000048 -0.000092  0.022833)
 11:    300.24   0.000454    2.29  0.000472  (-0.019926 -0.008654 -0.000083)
 12:    349.81   0.020416  103.17  0.018213  ( 0.001137 -0.000376 -0.134950)
 13:    357.41   0.000567    2.86  0.000495  (-0.021536 -0.005540  0.000420)
 14:    376.99   0.000622    3.14  0.000515  (-0.000506 -0.000970  0.022658)
 15:    415.91   0.003284   16.60  0.002464  (-0.013639 -0.047725 -0.000442)
 16:    426.62   0.000115    0.58  0.000084  (-0.000245 -0.000828  0.009139)
 17:    534.83   0.002826   14.28  0.001649  (-0.001031  0.000123 -0.040597)
 18:    543.15   0.000155    0.78  0.000089  ( 0.003728  0.002103 -0.008395)
 19:    550.89   0.005243   26.50  0.002970  (-0.052015 -0.016221  0.001238)
 20:    604.46   0.003356   16.96  0.001733  ( 0.015122  0.038783  0.000094)
 21:    661.30   0.000362    1.83  0.000171  ( 0.011157  0.006809  0.000080)
 22:    717.07   0.010346   52.28  0.004502  (-0.000194 -0.001005  0.067092)
 23:    730.72   0.000860    4.35  0.000367  ( 0.000558  0.000291 -0.019156)
 24:    784.44   0.000419    2.12  0.000167  ( 0.000203 -0.012894  0.000605)
 25:    812.97   0.002043   10.32  0.000784  ( 0.000147  0.000158 -0.028003)
 26:    850.28   0.009327   47.14  0.003423  (-0.000227 -0.002583 -0.058450)
 27:    852.45   0.002348   11.86  0.000859  (-0.007357 -0.027889  0.005248)
 28:    940.54   0.000962    4.86  0.000319  ( 0.017582 -0.003182 -0.000126)
 29:    944.63   0.000045    0.23  0.000015  (-0.000636  0.000091  0.003792)
 30:    973.81   0.000017    0.09  0.000006  (-0.000083 -0.000144 -0.002348)
 31:   1012.33   0.004925   24.89  0.001518  ( 0.022879  0.031539 -0.000115)
 32:   1019.85   0.002541   12.84  0.000777  (-0.015639 -0.023083  0.000182)
 33:   1042.65   0.001226    6.20  0.000367  (-0.000514 -0.000442 -0.019144)
 34:   1130.44   0.002109   10.66  0.000582  ( 0.023228  0.006512  0.000390)
 35:   1186.93   0.007962   40.24  0.002093  (-0.002700 -0.045673 -0.000024)
 36:   1190.11   0.029112  147.12  0.007634  ( 0.027613  0.082892 -0.000076)
 37:   1249.57   0.004127   20.86  0.001031  (-0.024275  0.021007  0.000308)
 38:   1314.30   0.045502  229.95  0.010804  ( 0.056827  0.087032 -0.000021)
 39:   1332.99   0.010199   51.54  0.002388  ( 0.022720  0.043260 -0.000227)
 40:   1345.06   0.002349   11.87  0.000545  ( 0.014983  0.017900 -0.000170)
 41:   1383.08   0.002615   13.21  0.000590  ( 0.009430  0.022383  0.000335)
 42:   1403.84   0.065820  332.63  0.014631  ( 0.098609  0.070052 -0.000355)
 43:   1447.74   0.000073    0.37  0.000016  (-0.003751 -0.001247 -0.000260)
 44:   1455.38   0.005046   25.50  0.001082  ( 0.010638  0.031121 -0.000488)
 45:   1460.60   0.001948    9.84  0.000416  (-0.000404 -0.000011  0.020396)
 46:   1521.93   0.002291   11.58  0.000470  ( 0.014595 -0.016024 -0.000215)
 47:   1563.03   0.075038  379.21  0.014981  ( 0.053805  0.109938 -0.000027)
 48:   1648.05   0.000896    4.53  0.000170  ( 0.006953  0.011011  0.000028)
 49:   1691.98   0.001177    5.95  0.000217  (-0.004071 -0.014159 -0.000041)
 50:   1796.29   0.102479  517.89  0.017803  ( 0.029632  0.130097  0.000317)
 51:   3042.74   0.000434    2.19  0.000045  (-0.003366  0.005759  0.000026)
 52:   3124.95   0.000876    4.42  0.000087  ( 0.000035  0.000094 -0.009350)
 53:   3158.49   0.003426   17.32  0.000339  (-0.009753 -0.015601 -0.000041)
 54:   3167.33   0.001095    5.53  0.000108  (-0.007353 -0.007334  0.000054)
 55:   3175.58   0.001541    7.79  0.000151  ( 0.010824 -0.005856  0.000094)
 56:   3199.35   0.000724    3.66  0.000071  ( 0.000588 -0.008380  0.000029)
 57:   3266.47   0.000172    0.87  0.000016  ( 0.004016 -0.000503  0.000110)
 58:   3577.93   0.004928   24.90  0.000430  (-0.014954  0.014357  0.000202)
 59:   3821.64   0.016695   84.37  0.001363  ( 0.031446  0.019348  0.000222)

* The epsilon (eps) is given for a Dirac delta lineshape.
** The dipole moment derivative (T) already includes vibrational overlap.

The first frequency considered to be a vibration is 7
The total number of vibrations considered is 53


--------------------------
THERMOCHEMISTRY AT 298.15K
--------------------------

Temperature         ... 298.15 K
Pressure            ... 1.00 atm
Total Mass          ... 151.16 AMU

Throughout the following assumptions are being made:
  (1) The electronic state is orbitally nondegenerate
  (2) There are no thermally accessible electronically excited states
  (3) Hindered rotations indicated by low frequency modes are not
      treated as such but are treated as vibrations and this may
      cause some error
  (4) All equations used are the standard statistical mechanics
      equations for an ideal gas
  (5) All vibrations are strictly harmonic

freq.      69.99  E(vib)   ...       0.50 
freq.     165.50  E(vib)   ...       0.39 
freq.     173.50  E(vib)   ...       0.38 
freq.     265.86  E(vib)   ...       0.29 
freq.     300.24  E(vib)   ...       0.26 
freq.     349.81  E(vib)   ...       0.23 
freq.     357.41  E(vib)   ...       0.22 
freq.     376.99  E(vib)   ...       0.21 
freq.     415.91  E(vib)   ...       0.18 
freq.     426.62  E(vib)   ...       0.18 
freq.     534.83  E(vib)   ...       0.13 
freq.     543.15  E(vib)   ...       0.12 
freq.     550.89  E(vib)   ...       0.12 
freq.     604.46  E(vib)   ...       0.10 
freq.     661.30  E(vib)   ...       0.08 
freq.     717.07  E(vib)   ...       0.07 
freq.     730.72  E(vib)   ...       0.06 
freq.     784.44  E(vib)   ...       0.05 
freq.     812.97  E(vib)   ...       0.05 
freq.     850.28  E(vib)   ...       0.04 
freq.     852.45  E(vib)   ...       0.04 
freq.     940.54  E(vib)   ...       0.03 
freq.     944.63  E(vib)   ...       0.03 
freq.     973.81  E(vib)   ...       0.03 
freq.    1012.33  E(vib)   ...       0.02 
freq.    1019.85  E(vib)   ...       0.02 
freq.    1042.65  E(vib)   ...       0.02 
freq.    1130.44  E(vib)   ...       0.01 
freq.    1186.93  E(vib)   ...       0.01 
freq.    1190.11  E(vib)   ...       0.01 
freq.    1249.57  E(vib)   ...       0.01 
freq.    1314.30  E(vib)   ...       0.01 
freq.    1332.99  E(vib)   ...       0.01 
freq.    1345.06  E(vib)   ...       0.01 
freq.    1383.08  E(vib)   ...       0.01 
freq.    1403.84  E(vib)   ...       0.00 
freq.    1447.74  E(vib)   ...       0.00 
freq.    1455.38  E(vib)   ...       0.00 
freq.    1460.60  E(vib)   ...       0.00 
freq.    1521.93  E(vib)   ...       0.00 
freq.    1563.03  E(vib)   ...       0.00 
freq.    1648.05  E(vib)   ...       0.00 
freq.    1691.98  E(vib)   ...       0.00 
freq.    1796.29  E(vib)   ...       0.00 
freq.    3042.74  E(vib)   ...       0.00 
freq.    3124.95  E(vib)   ...       0.00 
freq.    3158.49  E(vib)   ...       0.00 
freq.    3167.33  E(vib)   ...       0.00 
freq.    3175.58  E(vib)   ...       0.00 
freq.    3199.35  E(vib)   ...       0.00 
freq.    3266.47  E(vib)   ...       0.00 
freq.    3577.93  E(vib)   ...       0.00 
freq.    3821.64  E(vib)   ...       0.00 

------------
INNER ENERGY
------------

The inner energy is: U= E(el) + E(ZPE) + E(vib) + E(rot) + E(trans)
    E(el)   - is the total energy from the electronic structure calculation
              = E(kin-el) + E(nuc-el) + E(el-el) + E(nuc-nuc)
    E(ZPE)  - the the zero temperature vibrational energy from the frequency calculation
    E(vib)  - the the finite temperature correction to E(ZPE) due to population
              of excited vibrational states
    E(rot)  - is the rotational thermal energy
    E(trans)- is the translational thermal energy

Summary of contributions to the inner energy U:
Electronic energy                ...   -514.84638296 Eh
Zero point energy                ...      0.15977704 Eh     100.26 kcal/mol
Thermal vibrational correction   ...      0.00626947 Eh       3.93 kcal/mol
Thermal rotational correction    ...      0.00141627 Eh       0.89 kcal/mol
Thermal translational correction ...      0.00141627 Eh       0.89 kcal/mol
-----------------------------------------------------------------------
Total thermal energy                   -514.67750390 Eh


Summary of corrections to the electronic energy:
(perhaps to be used in another calculation)
Total thermal correction                  0.00910202 Eh       5.71 kcal/mol
Non-thermal (ZPE) correction              0.15977704 Eh     100.26 kcal/mol
-----------------------------------------------------------------------
Total correction                          0.16887905 Eh     105.97 kcal/mol


--------
ENTHALPY
--------

The enthalpy is H = U + kB*T
                kB is Boltzmann's constant
Total free energy                 ...   -514.67750390 Eh 
Thermal Enthalpy correction       ...      0.00094421 Eh       0.59 kcal/mol
-----------------------------------------------------------------------
Total Enthalpy                    ...   -514.67655970 Eh


Note: Only C1 symmetry has been detected, increase convergence thresholds 
      if your molecule has a higher symmetry. Symmetry factor of 1.0 is   
      used for the rotational entropy correction. 
 

Note: Rotational entropy computed according to Herzberg 
Infrared and Raman Spectra, Chapter V,1, Van Nostrand Reinhold, 1945 
Point Group:  C1, Symmetry Number:   1  
Rotational constants in cm-1:     0.114289     0.018035     0.015624 

Vibrational entropy computed according to the QRRHO of S. Grimme
Chem.Eur.J. 2012 18 9955


-------
ENTROPY
-------

The entropy contributions are T*S = T*(S(el)+S(vib)+S(rot)+S(trans))
     S(el)   - electronic entropy
     S(vib)  - vibrational entropy
     S(rot)  - rotational entropy
     S(trans)- translational entropy
The entropies will be listed as multiplied by the temperature to get
units of energy

Electronic entropy                ...      0.00000000 Eh      0.00 kcal/mol
Vibrational entropy               ...      0.01006686 Eh      6.32 kcal/mol
Rotational entropy                ...      0.01439385 Eh      9.03 kcal/mol
Translational entropy             ...      0.01945645 Eh     12.21 kcal/mol
-----------------------------------------------------------------------
Final entropy term                ...      0.04391716 Eh     27.56 kcal/mol

In case the symmetry of your molecule has not been determined correctly
or in case you have a reason to use a different symmetry number we print 
out the resulting rotational entropy values for sn=1,12 :
 --------------------------------------------------------
|  sn= 1 | S(rot)=       0.01439385 Eh      9.03 kcal/mol|
|  sn= 2 | S(rot)=       0.01373940 Eh      8.62 kcal/mol|
|  sn= 3 | S(rot)=       0.01335656 Eh      8.38 kcal/mol|
|  sn= 4 | S(rot)=       0.01308494 Eh      8.21 kcal/mol|
|  sn= 5 | S(rot)=       0.01287425 Eh      8.08 kcal/mol|
|  sn= 6 | S(rot)=       0.01270211 Eh      7.97 kcal/mol|
|  sn= 7 | S(rot)=       0.01255656 Eh      7.88 kcal/mol|
|  sn= 8 | S(rot)=       0.01243048 Eh      7.80 kcal/mol|
|  sn= 9 | S(rot)=       0.01231928 Eh      7.73 kcal/mol|
|  sn=10 | S(rot)=       0.01221980 Eh      7.67 kcal/mol|
|  sn=11 | S(rot)=       0.01212981 Eh      7.61 kcal/mol|
|  sn=12 | S(rot)=       0.01204765 Eh      7.56 kcal/mol|
 --------------------------------------------------------


-------------------
GIBBS FREE ENERGY
-------------------

The Gibbs free energy is G = H - T*S

Total enthalpy                    ...   -514.67655970 Eh 
Total entropy correction          ...     -0.04391716 Eh    -27.56 kcal/mol
-----------------------------------------------------------------------
Final Gibbs free energy         ...   -514.72047685 Eh

For completeness - the Gibbs free energy minus the electronic energy
G-E(el)                           ...      0.12590610 Eh     79.01 kcal/mol


Timings for individual modules:

Sum of individual times         ...     1930.684 sec (=  32.178 min)
GTO integral calculation        ...       14.416 sec (=   0.240 min)   0.7 %
SCF iterations                  ...      790.498 sec (=  13.175 min)  40.9 %
SCF Gradient evaluation         ...      222.292 sec (=   3.705 min)  11.5 %
Geometry relaxation             ...        2.061 sec (=   0.034 min)   0.1 %
Analytical frequency calculation...      901.417 sec (=  15.024 min)  46.7 %
                             ****ORCA TERMINATED NORMALLY****
TOTAL RUN TIME: 0 days 0 hours 32 minutes 14 seconds 801 msec
