
                                 *****************
                                 * O   R   C   A *
                                 *****************

                                            #,                                       
                                            ###                                      
                                            ####                                     
                                            #####                                    
                                            ######                                   
                                           ########,                                 
                                     ,,################,,,,,                         
                               ,,#################################,,                 
                          ,,##########################################,,             
                       ,#########################################, ''#####,          
                    ,#############################################,,   '####,        
                  ,##################################################,,,,####,       
                ,###########''''           ''''###############################       
              ,#####''   ,,,,##########,,,,          '''####'''          '####       
            ,##' ,,,,###########################,,,                        '##       
           ' ,,###''''                  '''############,,,                           
         ,,##''                                '''############,,,,        ,,,,,,###''
      ,#''                                            '''#######################'''  
     '                                                          ''''####''''         
             ,#######,   #######,   ,#######,      ##                                
            ,#'     '#,  ##    ##  ,#'     '#,    #''#        ######   ,####,        
            ##       ##  ##   ,#'  ##            #'  '#       #        #'  '#        
            ##       ##  #######   ##           ,######,      #####,   #    #        
            '#,     ,#'  ##    ##  '#,     ,#' ,#      #,         ##   #,  ,#        
             '#######'   ##     ##  '#######'  #'      '#     #####' # '####'        



                  #######################################################
                  #                        -***-                        #
                  #          Department of theory and spectroscopy      #
                  #    Directorship and core code : Frank Neese         #
                  #        Max Planck Institute fuer Kohlenforschung    #
                  #                Kaiser Wilhelm Platz 1               #
                  #                 D-45470 Muelheim/Ruhr               #
                  #                      Germany                        #
                  #                                                     #
                  #                  All rights reserved                #
                  #                        -***-                        #
                  #######################################################



                         Program Version 5.0.4 -  RELEASE  -

 With contributions from (in alphabetic order):
   Daniel Aravena         : Magnetic Suceptibility
   Michael Atanasov       : Ab Initio Ligand Field Theory (pilot matlab implementation)
   Alexander A. Auer      : GIAO ZORA, VPT2 properties, NMR spectrum
   Ute Becker             : Parallelization
   Giovanni Bistoni       : ED, misc. LED, open-shell LED, HFLD
   Martin Brehm           : Molecular dynamics
   Dmytro Bykov           : SCF Hessian
   Vijay G. Chilkuri      : MRCI spin determinant printing, contributions to CSF-ICE
   Dipayan Datta          : RHF DLPNO-CCSD density
   Achintya Kumar Dutta   : EOM-CC, STEOM-CC
   Dmitry Ganyushin       : Spin-Orbit,Spin-Spin,Magnetic field MRCI
   Miquel Garcia          : C-PCM and meta-GGA Hessian, CC/C-PCM, Gaussian charge scheme
   Yang Guo               : DLPNO-NEVPT2, F12-NEVPT2, CIM, IAO-localization
   Andreas Hansen         : Spin unrestricted coupled pair/coupled cluster methods
   Benjamin Helmich-Paris : MC-RPA, TRAH-SCF, COSX integrals
   Lee Huntington         : MR-EOM, pCC
   Robert Izsak           : Overlap fitted RIJCOSX, COSX-SCS-MP3, EOM
   Marcus Kettner         : VPT2
   Christian Kollmar      : KDIIS, OOCD, Brueckner-CCSD(T), CCSD density, CASPT2, CASPT2-K
   Simone Kossmann        : Meta GGA functionals, TD-DFT gradient, OOMP2, MP2 Hessian
   Martin Krupicka        : Initial AUTO-CI
   Lucas Lang             : DCDCAS
   Marvin Lechner         : AUTO-CI (C++ implementation), FIC-MRCC
   Dagmar Lenk            : GEPOL surface, SMD
   Dimitrios Liakos       : Extrapolation schemes; Compound Job, initial MDCI parallelization
   Dimitrios Manganas     : Further ROCIS development; embedding schemes
   Dimitrios Pantazis     : SARC Basis sets
   Anastasios Papadopoulos: AUTO-CI, single reference methods and gradients
   Taras Petrenko         : DFT Hessian,TD-DFT gradient, ASA, ECA, R-Raman, ABS, FL, XAS/XES, NRVS
   Peter Pinski           : DLPNO-MP2, DLPNO-MP2 Gradient
   Christoph Reimann      : Effective Core Potentials
   Marius Retegan         : Local ZFS, SOC
   Christoph Riplinger    : Optimizer, TS searches, QM/MM, DLPNO-CCSD(T), (RO)-DLPNO pert. Triples
   Tobias Risthaus        : Range-separated hybrids, TD-DFT gradient, RPA, STAB
   Michael Roemelt        : Original ROCIS implementation
   Masaaki Saitow         : Open-shell DLPNO-CCSD energy and density
   Barbara Sandhoefer     : DKH picture change effects
   Avijit Sen             : IP-ROCIS
   Kantharuban Sivalingam : CASSCF convergence, NEVPT2, FIC-MRCI
   Bernardo de Souza      : ESD, SOC TD-DFT
   Georgi Stoychev        : AutoAux, RI-MP2 NMR, DLPNO-MP2 response
   Willem Van den Heuvel  : Paramagnetic NMR
   Boris Wezisla          : Elementary symmetry handling
   Frank Wennmohs         : Technical directorship


 We gratefully acknowledge several colleagues who have allowed us to
 interface, adapt or use parts of their codes:
   Stefan Grimme, W. Hujo, H. Kruse, P. Pracht,  : VdW corrections, initial TS optimization,
                  C. Bannwarth, S. Ehlert          DFT functionals, gCP, sTDA/sTD-DF
   Ed Valeev, F. Pavosevic, A. Kumar             : LibInt (2-el integral package), F12 methods
   Garnet Chan, S. Sharma, J. Yang, R. Olivares  : DMRG
   Ulf Ekstrom                                   : XCFun DFT Library
   Mihaly Kallay                                 : mrcc  (arbitrary order and MRCC methods)
   Jiri Pittner, Ondrej Demel                    : Mk-CCSD
   Frank Weinhold                                : gennbo (NPA and NBO analysis)
   Christopher J. Cramer and Donald G. Truhlar   : smd solvation model
   Lars Goerigk                                  : TD-DFT with DH, B97 family of functionals
   V. Asgeirsson, H. Jonsson                     : NEB implementation
   FAccTs GmbH                                   : IRC, NEB, NEB-TS, DLPNO-Multilevel, CI-OPT
                                                   MM, QMMM, 2- and 3-layer-ONIOM, Crystal-QMMM,
                                                   LR-CPCM, SF, NACMEs, symmetry and pop. for TD-DFT,
                                                   nearIR, NL-DFT gradient (VV10), updates on ESD,
                                                   ML-optimized integration grids
   S Lehtola, MJT Oliveira, MAL Marques          : LibXC Library
   Liviu Ungur et al                             : ANISO software


 Your calculation uses the libint2 library for the computation of 2-el integrals
 For citations please refer to: http://libint.valeyev.net

 Your ORCA version has been built with support for libXC version: 5.1.0
 For citations please refer to: https://tddft.org/programs/libxc/

 This ORCA versions uses:
   CBLAS   interface :  Fast vector & matrix operations
   LAPACKE interface :  Fast linear algebra routines
   Shared memory     :  Shared parallel matrices


Your calculation utilizes the atom-pairwise dispersion correction
based on tight binding partial charges (D4)
Cite in your paper:
E.Caldeweyher, C.Bannwarth, S.Grimme, J.Chem.Phys., (2017), 147, 034112.
E.Caldeweyher, S.Ehlert, A.Hansen, H.Neugebauer, S.Grimme, J.Chem.Phys., (2018), in progress.
   

================================================================================

----- Orbital basis set information -----
Your calculation utilizes the basis: def2-SVP
   F. Weigend and R. Ahlrichs, Phys. Chem. Chem. Phys. 7, 3297 (2005).

----- AuxJ basis set information -----
Your calculation utilizes the auxiliary basis: def2/J
   F. Weigend, Phys. Chem. Chem. Phys. 8, 1057 (2006).

================================================================================
                                        WARNINGS
                       Please study these warnings very carefully!
================================================================================


WARNING: Geometry Optimization
  ===> : Switching off AutoStart
         For restart on a previous wavefunction, please use MOREAD

INFO   : the flag for use of the SHARK integral package has been found!

================================================================================
                                       INPUT FILE
================================================================================
NAME = educts_optfreq_3.inp
|  1> !B3LYP DEF2-SVP OPT FREQ D4 SOSCF
|  2> 
|  3> %geom
|  4> convergence tight
|  5> end
|  6> 
|  7> * xyz 1 1
|  8>    C        0.36829        0.58815        2.96523
|  9>    C       -0.32151        0.90021        1.76511
| 10>    C       -0.21692        0.07334        0.65200
| 11>    C        0.58227       -1.09140        0.70690
| 12>    C        1.27575       -1.41770        1.89040
| 13>    C        1.17075       -0.59109        3.00152
| 14>    C        0.24635        1.45495        4.17695
| 15>    H        1.24367        1.60370        4.65915
| 16>    H       -0.40193        0.94118        4.93809
| 17>    H       -0.21212        2.44718        3.95121
| 18>    H       -0.93737        1.80449        1.72657
| 19>    H       -0.75079        0.32072       -0.26834
| 20>    H        0.66636       -1.74153       -0.17119
| 21>    H        1.89405       -2.31971        1.92698
| 22>    H        1.70734       -0.83776        3.92134
| 23>    N       -1.68419       -1.87138      -11.54327
| 24>    O       -2.30066       -0.50170      -10.71982
| 25>    O       -2.01022        0.14741      -13.23057
| 26> **                         ****END OF INPUT****
================================================================================

                       *****************************
                       * Geometry Optimization Run *
                       *****************************

Geometry optimization settings:
Update method            Update   .... BFGS
Choice of coordinates    CoordSys .... Z-matrix Internals
Initial Hessian          InHess   .... Almoef's Model

Convergence Tolerances:
Energy Change            TolE     ....  1.0000e-06 Eh
Max. Gradient            TolMAXG  ....  1.0000e-04 Eh/bohr
RMS Gradient             TolRMSG  ....  3.0000e-05 Eh/bohr
Max. Displacement        TolMAXD  ....  1.0000e-03 bohr
RMS Displacement         TolRMSD  ....  6.0000e-04 bohr
Strict Convergence                ....  False
------------------------------------------------------------------------------
                        ORCA OPTIMIZATION COORDINATE SETUP
------------------------------------------------------------------------------

The optimization will be done in new redundant internal coordinates
Making redundant internal coordinates   ...  (new redundants) done
Evaluating the initial hessian          ...  (Almloef) done
Evaluating the coordinates              ...  done
Calculating the B-matrix                .... done
Calculating the G-matrix                .... done
Diagonalizing the G-matrix              .... done
Small eigenvalue found = 2.308e-02
The first mode is                       ....   49
The number of degrees of freedom        ....   48

    -----------------------------------------------------------------
                    Redundant Internal Coordinates


    -----------------------------------------------------------------
         Definition                    Initial Value    Approx d2E/dq
    -----------------------------------------------------------------
      1. B(C   1,C   0)                  1.4190         0.561706   
      2. B(C   2,C   1)                  1.3906         0.623504   
      3. B(C   3,C   2)                  1.4136         0.572855   
      4. B(C   4,C   3)                  1.4100         0.580568   
      5. B(C   5,C   0)                  1.4268         0.545715   
      6. B(C   5,C   4)                  1.3888         0.627448   
      7. B(C   6,C   0)                  1.4948         0.425119   
      8. B(H   7,C   6)                  1.1177         0.325239   
      9. B(H   8,C   6)                  1.1241         0.317722   
     10. B(H   9,C   6)                  1.1161         0.327180   
     11. B(H  10,C   1)                  1.0948         0.353863   
     12. B(H  11,C   2)                  1.0924         0.356998   
     13. B(H  12,C   3)                  1.0958         0.352506   
     14. B(H  13,C   4)                  1.0942         0.354598   
     15. B(H  14,C   5)                  1.0931         0.356037   
     16. B(N  15,H  12)                 11.6132         0.000000   
     17. B(N  15,H  11)                 11.5239         0.000000   
     18. B(O  16,H  12)                 11.0279         0.000000   
     19. B(O  16,H  11)                 10.5977         0.000000   
     20. B(O  16,C   2)                 11.5754         0.000000   
     21. B(O  16,N  15)                  1.7129         0.153038   
     22. B(O  17,O  16)                  2.6095         0.005680   
     23. B(O  17,N  15)                  2.6512         0.004874   
     24. A(C   5,C   0,C   6)          120.2987         0.396797   
     25. A(C   1,C   0,C   6)          121.2256         0.398816   
     26. A(C   1,C   0,C   5)          118.4679         0.416832   
     27. A(C   0,C   1,H  10)          119.0060         0.346058   
     28. A(C   0,C   1,C   2)          120.6424         0.426870   
     29. A(C   2,C   1,H  10)          120.3514         0.352203   
     30. A(H  11,C   2,O  16)           25.2526         0.089054   
     31. A(C   3,C   2,O  16)           95.6811         0.089069   
     32. A(C   1,C   2,C   3)          120.0908         0.428377   
     33. A(C   3,C   2,H  11)          119.7105         0.347720   
     34. A(C   1,C   2,H  11)          120.1987         0.352729   
     35. A(C   1,C   2,O  16)          143.3592         0.089070   
     36. A(C   2,C   3,C   4)          120.0882         0.422940   
     37. A(C   4,C   3,H  12)          119.8389         0.347761   
     38. A(C   2,C   3,H  12)          120.0727         0.346979   
     39. A(C   5,C   4,H  13)          120.4387         0.352703   
     40. A(C   3,C   4,H  13)          119.7858         0.348108   
     41. A(C   3,C   4,C   5)          119.7754         0.429892   
     42. A(C   4,C   5,H  14)          120.1187         0.352944   
     43. A(C   0,C   5,C   4)          120.9352         0.425148   
     44. A(C   0,C   5,H  14)          118.9461         0.344737   
     45. A(H   8,C   6,H   9)          107.8413         0.280988   
     46. A(H   7,C   6,H   9)          109.6014         0.282007   
     47. A(C   0,C   6,H   9)          112.6481         0.326103   
     48. A(H   7,C   6,H   8)          106.4575         0.280730   
     49. A(C   0,C   6,H   8)          109.3232         0.324534   
     50. A(C   0,C   6,H   7)          110.7380         0.325784   
     51. A(O  16,N  15,O  17)           69.6847         0.170199   
     52. A(C   2,O  16,O  17)          155.9000         0.089024   
     53. A(N  15,O  16,O  17)           72.3209         0.173062   
     54. A(C   2,O  16,N  15)          116.5646         0.089050   
     55. A(N  15,O  17,O  16)           37.9945         0.127529   
     56. D(H  10,C   1,C   0,C   5)   -179.8212         0.021617   
     57. D(C   2,C   1,C   0,C   5)      0.0558         0.021617   
     58. D(C   2,C   1,C   0,C   6)   -178.9280         0.021617   
     59. D(H  10,C   1,C   0,C   6)      1.1950         0.021617   
     60. D(C   3,C   2,C   1,H  10)    179.8577         0.029254   
     61. D(H  11,C   2,C   1,C   0)   -179.9760         0.029254   
     62. D(O  16,C   2,C   1,C   0)   -166.1381         0.029254   
     63. D(O  16,C   2,C   1,H  10)     13.7372         0.029254   
     64. D(H  11,C   2,C   1,H  10)     -0.1007         0.029254   
     65. D(C   3,C   2,C   1,C   0)     -0.0177         0.029254   
     66. D(H  12,C   3,C   2,C   1)   -179.8560         0.024451   
     67. D(C   4,C   3,C   2,H  11)    179.9446         0.024451   
     68. D(C   4,C   3,C   2,C   1)     -0.0140         0.024451   
     69. D(H  12,C   3,C   2,H  11)      0.1026         0.024451   
     70. D(C   4,C   3,C   2,O  16)    171.7143         0.024451   
     71. D(H  12,C   3,C   2,O  16)     -8.1276         0.024451   
     72. D(H  13,C   4,C   3,H  12)     -0.0734         0.023159   
     73. D(H  13,C   4,C   3,C   2)   -179.9158         0.023159   
     74. D(C   5,C   4,C   3,H  12)    179.8482         0.023159   
     75. D(C   5,C   4,C   3,C   2)      0.0058         0.023159   
     76. D(H  14,C   5,C   4,H  13)      0.0282         0.027283   
     77. D(C   0,C   5,C   4,H  13)    179.9549         0.027283   
     78. D(C   0,C   5,C   4,C   3)      0.0338         0.027283   
     79. D(H  14,C   5,C   0,C   6)     -1.1431         0.020362   
     80. D(H  14,C   5,C   0,C   1)    179.8634         0.020362   
     81. D(H  14,C   5,C   4,C   3)   -179.8929         0.027283   
     82. D(C   4,C   5,C   0,C   6)    178.9294         0.020362   
     83. D(C   4,C   5,C   0,C   1)     -0.0642         0.020362   
     84. D(H   8,C   6,C   0,C   1)    105.9169         0.013355   
     85. D(H   7,C   6,C   0,C   5)     43.9380         0.013355   
     86. D(H   7,C   6,C   0,C   1)   -137.0967         0.013355   
     87. D(H   9,C   6,C   0,C   5)    167.0768         0.013355   
     88. D(H   9,C   6,C   0,C   1)    -13.9578         0.013355   
     89. D(H   8,C   6,C   0,C   5)    -73.0485         0.013355   
     90. D(C   2,O  16,N  15,O  17)   -155.7550         0.003580   
     91. D(O  17,O  16,C   2,H  11)     94.2874         0.001500   
     92. D(O  17,O  16,C   2,C   3)   -102.6571         0.001500   
     93. D(O  17,O  16,C   2,C   1)     65.3039         0.001500   
     94. D(N  15,O  16,C   2,H  11)   -159.0800         0.001500   
     95. D(N  15,O  16,C   2,C   3)      3.9756         0.001500   
     96. D(N  15,O  16,C   2,C   1)    171.9365         0.001500   
     97. D(N  15,O  17,O  16,C   2)    115.9091         0.001503   
    -----------------------------------------------------------------

Number of atoms                         .... 18
Number of degrees of freedom            .... 97

         *************************************************************
         *                GEOMETRY OPTIMIZATION CYCLE   1            *
         *************************************************************
---------------------------------
CARTESIAN COORDINATES (ANGSTROEM)
---------------------------------
  C      0.368290    0.588150    2.965230
  C     -0.321510    0.900210    1.765110
  C     -0.216920    0.073340    0.652000
  C      0.582270   -1.091400    0.706900
  C      1.275750   -1.417700    1.890400
  C      1.170750   -0.591090    3.001520
  C      0.246350    1.454950    4.176950
  H      1.243670    1.603700    4.659150
  H     -0.401930    0.941180    4.938090
  H     -0.212120    2.447180    3.951210
  H     -0.937370    1.804490    1.726570
  H     -0.750790    0.320720   -0.268340
  H      0.666360   -1.741530   -0.171190
  H      1.894050   -2.319710    1.926980
  H      1.707340   -0.837760    3.921340
  N     -1.684190   -1.871380  -11.543270
  O     -2.300660   -0.501700  -10.719820
  O     -2.010220    0.147410  -13.230570

----------------------------
CARTESIAN COORDINATES (A.U.)
----------------------------
  NO LB      ZA    FRAG     MASS         X           Y           Z
   0 C     6.0000    0    12.011    0.695967    1.111442    5.603473
   1 C     6.0000    0    12.011   -0.607566    1.701150    3.335574
   2 C     6.0000    0    12.011   -0.409919    0.138593    1.232101
   3 C     6.0000    0    12.011    1.100331   -2.062447    1.335847
   4 C     6.0000    0    12.011    2.410818   -2.679065    3.572338
   5 C     6.0000    0    12.011    2.212397   -1.116998    5.672051
   6 C     6.0000    0    12.011    0.465534    2.749457    7.893292
   7 H     1.0000    0     1.008    2.350196    3.030554    8.804518
   8 H     1.0000    0     1.008   -0.759538    1.778572    9.331638
   9 H     1.0000    0     1.008   -0.400849    4.624500    7.466705
  10 H     1.0000    0     1.008   -1.771373    3.409992    3.262744
  11 H     1.0000    0     1.008   -1.418787    0.606073   -0.507089
  12 H     1.0000    0     1.008    1.259238   -3.291015   -0.323502
  13 H     1.0000    0     1.008    3.579236   -4.383617    3.641464
  14 H     1.0000    0     1.008    3.226405   -1.583137    7.410259
  15 N     7.0000    0    14.007   -3.182658   -3.536396  -21.813619
  16 O     8.0000    0    15.999   -4.347617   -0.948076  -20.257524
  17 O     8.0000    0    15.999   -3.798765    0.278565  -25.002154

--------------------------------
INTERNAL COORDINATES (ANGSTROEM)
--------------------------------
 C      0   0   0     0.000000000000     0.00000000     0.00000000
 C      1   0   0     1.418976214741     0.00000000     0.00000000
 C      2   1   0     1.390563532206   120.64243947     0.00000000
 C      3   2   1     1.413625811062   120.09084155     0.00000000
 C      4   3   2     1.409985266022   120.08817621     0.00000000
 C      5   4   3     1.388847272561   119.77542100     0.00000000
 C      1   2   3     1.494816698462   121.22557225   181.07199031
 H      7   1   2     1.117716683646   110.73796303   222.90334051
 H      7   1   2     1.124082145975   109.32318651   105.91692692
 H      7   1   2     1.116097514288   112.64813347   346.04217902
 H      2   1   3     1.094756223823   119.00603844   180.12300527
 H      3   2   1     1.092355142296   120.19865644   180.02395320
 H      4   3   2     1.095802077521   120.07272317   180.14403582
 H      5   4   3     1.094191494438   119.78581763   180.08421974
 H      6   5   4     1.093089085757   120.11867964   180.10711525
 N     12   3   2    11.523913591957   145.16815995   165.21987508
 O     16  12   3     1.712929790096    53.60894451   197.31661342
 O     17  16  12     2.609514274381    72.32085692   156.78275670

---------------------------
INTERNAL COORDINATES (A.U.)
---------------------------
 C      0   0   0     0.000000000000     0.00000000     0.00000000
 C      1   0   0     2.681476436408     0.00000000     0.00000000
 C      2   1   0     2.627784247687   120.64243947     0.00000000
 C      3   2   1     2.671365638749   120.09084155     0.00000000
 C      4   3   2     2.664486005646   120.08817621     0.00000000
 C      5   4   3     2.624540986984   119.77542100     0.00000000
 C      1   2   3     2.824794180505   121.22557225   181.07199031
 H      7   1   2     2.112178427405   110.73796303   222.90334051
 H      7   1   2     2.124207407923   109.32318651   105.91692692
 H      7   1   2     2.109118640755   112.64813347   346.04217902
 H      2   1   3     2.068789446432   119.00603844   180.12300527
 H      3   2   1     2.064252059920   120.19865644   180.02395320
 H      4   3   2     2.070765823497   120.07272317   180.14403582
 H      5   4   3     2.067722262553   119.78581763   180.08421974
 H      6   5   4     2.065639012058   120.11867964   180.10711525
 N     12   3   2    21.777040679772   145.16815995   165.21987508
 O     16  12   3     3.236968189918    53.60894451   197.31661342
 O     17  16  12     4.931267321139    72.32085692   156.78275670

---------------------
BASIS SET INFORMATION
---------------------
There are 4 groups of distinct atoms

 Group   1 Type C   : 7s4p1d contracted to 3s2p1d pattern {511/31/1}
 Group   2 Type H   : 4s1p contracted to 2s1p pattern {31/1}
 Group   3 Type N   : 7s4p1d contracted to 3s2p1d pattern {511/31/1}
 Group   4 Type O   : 7s4p1d contracted to 3s2p1d pattern {511/31/1}

Atom   0C    basis set group =>   1
Atom   1C    basis set group =>   1
Atom   2C    basis set group =>   1
Atom   3C    basis set group =>   1
Atom   4C    basis set group =>   1
Atom   5C    basis set group =>   1
Atom   6C    basis set group =>   1
Atom   7H    basis set group =>   2
Atom   8H    basis set group =>   2
Atom   9H    basis set group =>   2
Atom  10H    basis set group =>   2
Atom  11H    basis set group =>   2
Atom  12H    basis set group =>   2
Atom  13H    basis set group =>   2
Atom  14H    basis set group =>   2
Atom  15N    basis set group =>   3
Atom  16O    basis set group =>   4
Atom  17O    basis set group =>   4
---------------------------------
AUXILIARY/J BASIS SET INFORMATION
---------------------------------
There are 4 groups of distinct atoms

 Group   1 Type C   : 12s5p4d2f1g contracted to 6s4p3d1f1g pattern {711111/2111/211/2/1}
 Group   2 Type H   : 5s2p1d contracted to 3s1p1d pattern {311/2/1}
 Group   3 Type N   : 12s5p4d2f1g contracted to 6s4p3d1f1g pattern {711111/2111/211/2/1}
 Group   4 Type O   : 12s5p4d2f1g contracted to 6s4p3d1f1g pattern {711111/2111/211/2/1}

Atom   0C    basis set group =>   1
Atom   1C    basis set group =>   1
Atom   2C    basis set group =>   1
Atom   3C    basis set group =>   1
Atom   4C    basis set group =>   1
Atom   5C    basis set group =>   1
Atom   6C    basis set group =>   1
Atom   7H    basis set group =>   2
Atom   8H    basis set group =>   2
Atom   9H    basis set group =>   2
Atom  10H    basis set group =>   2
Atom  11H    basis set group =>   2
Atom  12H    basis set group =>   2
Atom  13H    basis set group =>   2
Atom  14H    basis set group =>   2
Atom  15N    basis set group =>   3
Atom  16O    basis set group =>   4
Atom  17O    basis set group =>   4
------------------------------------------------------------------------------
                           ORCA GTO INTEGRAL CALCULATION
                           -- RI-GTO INTEGRALS CHOSEN --
------------------------------------------------------------------------------
------------------------------------------------------------------------------
                   ___                                                        
                  /   \      - P O W E R E D   B Y -                         
                 /     \                                                     
                 |  |  |   _    _      __       _____    __    __             
                 |  |  |  | |  | |    /  \     |  _  \  |  |  /  |          
                  \  \/   | |  | |   /    \    | | | |  |  | /  /          
                 / \  \   | |__| |  /  /\  \   | |_| |  |  |/  /          
                |  |  |   |  __  | /  /__\  \  |    /   |      \           
                |  |  |   | |  | | |   __   |  |    \   |  |\   \          
                \     /   | |  | | |  |  |  |  | |\  \  |  | \   \       
                 \___/    |_|  |_| |__|  |__|  |_| \__\ |__|  \__/        
                                                                              
                      - O R C A' S   B I G   F R I E N D -                    
                                      &                                       
                       - I N T E G R A L  F E E D E R -                       
                                                                              
 v1 FN, 2020, v2 2021                                                         
------------------------------------------------------------------------------


Reading SHARK input file educts_optfreq_3.SHARKINP.tmp ... ok
----------------------
SHARK INTEGRAL PACKAGE
----------------------

Number of atoms                             ...     18
Number of basis functions                   ...    180
Number of shells                            ...     84
Maximum angular momentum                    ...      2
Integral batch strategy                     ... SHARK/LIBINT Hybrid
RI-J (if used) integral strategy            ... SPLIT-RIJ (Revised 2003 algorithm where possible)
Printlevel                                  ...      1
Contraction scheme used                     ... SEGMENTED contraction
Coulomb Range Separation                    ... NOT USED
Exchange Range Separation                   ... NOT USED
Finite Nucleus Model                        ... NOT USED
Auxiliary Coulomb fitting basis             ... AVAILABLE
   # of basis functions in Aux-J            ...    578
   # of shells in Aux-J                     ...    190
   Maximum angular momentum in Aux-J        ...      4
Auxiliary J/K fitting basis                 ... NOT available
Auxiliary Correlation fitting basis         ... NOT available
Auxiliary 'external' fitting basis          ... NOT available
Integral threshold                          ...     2.500000e-11
Primitive cut-off                           ...     2.500000e-12
Primitive pair pre-selection threshold      ...     2.500000e-12

Calculating pre-screening integrals         ... done (  0.0 sec) Dimension = 84
Organizing shell pair data                  ... done (  0.0 sec)
Shell pair information
Total number of shell pairs                 ...      3570
Shell pairs after pre-screening             ...      2300
Total number of primitive shell pairs       ...     13034
Primitive shell pairs kept                  ...      6318
          la=0 lb=0:    719 shell pairs
          la=1 lb=0:    838 shell pairs
          la=1 lb=1:    262 shell pairs
          la=2 lb=0:    279 shell pairs
          la=2 lb=1:    168 shell pairs
          la=2 lb=2:     34 shell pairs

Calculating one electron integrals          ... done (  0.0 sec)
Calculating RI/J V-Matrix + Cholesky decomp.... done (  0.0 sec)
Calculating Nuclear repulsion               ... done (  0.0 sec) ENN=    351.551163960935 Eh

SHARK setup successfully completed in   0.3 seconds

Maximum memory used throughout the entire GTOINT-calculation: 19.3 MB
-------------------------------------------------------------------------------
                                 ORCA SCF
-------------------------------------------------------------------------------

------------
SCF SETTINGS
------------
Hamiltonian:
 Density Functional     Method          .... DFT(GTOs)
 Exchange Functional    Exchange        .... B88
   X-Alpha parameter    XAlpha          ....  0.666667
   Becke's b parameter  XBeta           ....  0.004200
 Correlation Functional Correlation     .... LYP
 LDA part of GGA corr.  LDAOpt          .... VWN-5
 Gradients option       PostSCFGGA      .... off
 Hybrid DFT is turned on
   Fraction HF Exchange ScalHFX         ....  0.200000
   Scaling of DF-GGA-X  ScalDFX         ....  0.720000
   Scaling of DF-GGA-C  ScalDFC         ....  0.810000
   Scaling of DF-LDA-C  ScalLDAC        ....  1.000000
   Perturbative correction              ....  0.000000
   Density functional embedding theory  .... OFF
   NL short-range parameter             ....  4.800000
 RI-approximation to the Coulomb term is turned on
   Number of AuxJ basis functions       .... 578
   RIJ-COSX (HFX calculated with COS-X)).... on


General Settings:
 Integral files         IntName         .... educts_optfreq_3
 Hartree-Fock type      HFTyp           .... RHF
 Total Charge           Charge          ....    1
 Multiplicity           Mult            ....    1
 Number of Electrons    NEL             ....   72
 Basis Dimension        Dim             ....  180
 Nuclear Repulsion      ENuc            ....    351.5511639609 Eh

Convergence Acceleration:
 DIIS                   CNVDIIS         .... on
   Start iteration      DIISMaxIt       ....    12
   Startup error        DIISStart       ....  0.200000
   # of expansion vecs  DIISMaxEq       ....     5
   Bias factor          DIISBfac        ....   1.050
   Max. coefficient     DIISMaxC        ....  10.000
 Trust-Rad. Augm. Hess. CNVTRAH         .... auto
   Auto Start mean grad. ratio tolernc. ....  1.125000
   Auto Start start iteration           ....    20
   Auto Start num. interpolation iter.  ....    10
   Max. Number of Micro iterations      ....    16
   Max. Number of Macro iterations      .... Maxiter - #DIIS iter
   Number of Davidson start vectors     ....     2
   Converg. threshold I  (grad. norm)   ....   1.000e-05
   Converg. threshold II (energy diff.) ....   1.000e-08
   Grad. Scal. Fac. for Micro threshold ....   0.100
   Minimum threshold for Micro iter.    ....   0.010
   NR start threshold (gradient norm)   ....   0.001
   Initial trust radius                 ....   0.400
   Minimum AH scaling param. (alpha)    ....   1.000
   Maximum AH scaling param. (alpha)    .... 1000.000
   Orbital update algorithm             .... Taylor
   White noise on init. David. guess    .... on
   Maximum white noise                  ....   0.010
   Quad. conv. algorithm                .... NR
 SOSCF                  CNVSOSCF        .... on
   Start iteration      SOSCFMaxIt      ....   150
   Startup grad/error   SOSCFStart      ....  0.003300
 Level Shifting         CNVShift        .... on
   Level shift para.    LevelShift      ....    0.2500
   Turn off err/grad.   ShiftErr        ....    0.0010
 Zerner damping         CNVZerner       .... off
 Static damping         CNVDamp         .... on
   Fraction old density DampFac         ....    0.7000
   Max. Damping (<1)    DampMax         ....    0.9800
   Min. Damping (>=0)   DampMin         ....    0.0000
   Turn off err/grad.   DampErr         ....    0.1000
 Fernandez-Rico         CNVRico         .... off

SCF Procedure:
 Maximum # iterations   MaxIter         ....   125
 SCF integral mode      SCFMode         .... Direct
   Integral package                     .... SHARK and LIBINT hybrid scheme
 Reset frequency        DirectResetFreq ....    20
 Integral Threshold     Thresh          ....  2.500e-11 Eh
 Primitive CutOff       TCut            ....  2.500e-12 Eh

Convergence Tolerance:
 Convergence Check Mode ConvCheckMode   .... Total+1el-Energy
 Convergence forced     ConvForced      .... 0
 Energy Change          TolE            ....  1.000e-08 Eh
 1-El. energy change                    ....  1.000e-05 Eh
 Orbital Gradient       TolG            ....  1.000e-05
 Orbital Rotation angle TolX            ....  1.000e-05
 DIIS Error             TolErr          ....  5.000e-07


Diagonalization of the overlap matrix:
Smallest eigenvalue                        ... 3.203e-04
Time for diagonalization                   ...    0.007 sec
Threshold for overlap eigenvalues          ... 1.000e-08
Number of eigenvalues below threshold      ... 0
Time for construction of square roots      ...    0.004 sec
Total time needed                          ...    0.011 sec

Time for model grid setup =    0.250 sec

------------------------------
INITIAL GUESS: MODEL POTENTIAL
------------------------------
Loading Hartree-Fock densities                     ... done
Calculating cut-offs                               ... done
Initializing the effective Hamiltonian             ... done
Setting up the integral package (SHARK)            ... done
Starting the Coulomb interaction                   ... done (   0.3 sec)
Reading the grid                                   ... done
Mapping shells                                     ... done
Starting the XC term evaluation                    ... done (   0.3 sec)
  promolecular density results
     # of electrons  =     72.993484666
     EX              =    -60.879422054
     EC              =     -2.425271307
     EX+EC           =    -63.304693361
Transforming the Hamiltonian                       ... done (   0.0 sec)
Diagonalizing the Hamiltonian                      ... done (   0.0 sec)
Back transforming the eigenvectors                 ... done (   0.0 sec)
Now organizing SCF variables                       ... done
                      ------------------
                      INITIAL GUESS DONE (   0.9 sec)
                      ------------------
-------------------
DFT GRID GENERATION
-------------------

General Integration Accuracy     IntAcc      ... 4.388
Radial Grid Type                 RadialGrid  ... OptM3 with GC (2021)
Angular Grid (max. ang.)         AngularGrid ... 4 (Lebedev-302)
Angular grid pruning method      GridPruning ... 4 (adaptive)
Weight generation scheme         WeightScheme... Becke
Basis function cutoff            BFCut       ... 1.0000e-11
Integration weight cutoff        WCut        ... 1.0000e-14
Angular grids for H and He will be reduced by one unit
Partially contracted basis set               ... off
Rotationally invariant grid construction     ... off

Total number of grid points                  ...    86436
Total number of batches                      ...     1361
Average number of points per batch           ...       63
Average number of grid points per atom       ...     4802
Time for grid setup =    1.883 sec

--------------------
COSX GRID GENERATION
--------------------

GRIDX 1
-------
General Integration Accuracy     IntAcc      ... 3.816
Radial Grid Type                 RadialGrid  ... OptM3 with GC (2021)
Angular Grid (max. ang.)         AngularGrid ... 1 (Lebedev-50)
Angular grid pruning method      GridPruning ... 4 (adaptive)
Weight generation scheme         WeightScheme... Becke
Basis function cutoff            BFCut       ... 1.0000e-11
Integration weight cutoff        WCut        ... 1.0000e-14
Angular grids for H and He will be reduced by one unit
Partially contracted basis set               ... on
Rotationally invariant grid construction     ... off

Total number of grid points                  ...    11024
Total number of batches                      ...      179
Average number of points per batch           ...       61
Average number of grid points per atom       ...      612
UseSFitting                                  ... on

GRIDX 2
-------
General Integration Accuracy     IntAcc      ... 4.020
Radial Grid Type                 RadialGrid  ... OptM3 with GC (2021)
Angular Grid (max. ang.)         AngularGrid ... 2 (Lebedev-110)
Angular grid pruning method      GridPruning ... 4 (adaptive)
Weight generation scheme         WeightScheme... Becke
Basis function cutoff            BFCut       ... 1.0000e-11
Integration weight cutoff        WCut        ... 1.0000e-14
Angular grids for H and He will be reduced by one unit
Partially contracted basis set               ... on
Rotationally invariant grid construction     ... off

Total number of grid points                  ...    24440
Total number of batches                      ...      391
Average number of points per batch           ...       62
Average number of grid points per atom       ...     1358
UseSFitting                                  ... on

GRIDX 3
-------
General Integration Accuracy     IntAcc      ... 4.338
Radial Grid Type                 RadialGrid  ... OptM3 with GC (2021)
Angular Grid (max. ang.)         AngularGrid ... 3 (Lebedev-194)
Angular grid pruning method      GridPruning ... 4 (adaptive)
Weight generation scheme         WeightScheme... Becke
Basis function cutoff            BFCut       ... 1.0000e-11
Integration weight cutoff        WCut        ... 1.0000e-14
Angular grids for H and He will be reduced by one unit
Partially contracted basis set               ... on
Rotationally invariant grid construction     ... off

Total number of grid points                  ...    53875
Total number of batches                      ...      850
Average number of points per batch           ...       63
Average number of grid points per atom       ...     2993
UseSFitting                                  ... on

Time for X-Grid setup             =    1.565 sec

--------------
SCF ITERATIONS
--------------
ITER       Energy         Delta-E        Max-DP      RMS-DP      [F,P]     Damp
               ***  Starting incremental Fock matrix formation  ***
  0   -474.4558406283   0.000000000000 0.41390249  0.00599709  0.3045584 0.7000
  1   -474.5097452004  -0.053904572125 0.20770807  0.00516825  0.1842885 0.7000
                               ***Turning on DIIS***
  2   -474.3863553591   0.123389841249 0.26637430  0.00384293  0.1698092 0.7000
  3   -474.6263748750  -0.240019515829 0.13186246  0.00241693  0.1122451 0.7000
  4   -474.2525613092   0.373813565745 0.08295599  0.00169113  0.2376574 0.7000
  5   -473.7629795365   0.489581772766 0.05644712  0.00119015  0.3163797 0.7000
  6   -473.3127042007   0.450275335745 0.03924718  0.00083630  0.3732372 0.7000
  7   -472.9454070141   0.367297186654 0.02717067  0.00058117  0.4144054 0.7000
  8   -472.6614370019   0.283970012144 0.02199975  0.00047177  0.4435127 0.7000
  9   -472.4879432737   0.173493728257 0.21131158  0.00229899  0.4510729 0.7000
 10   -473.4823070810  -0.994363807318 0.71150626  0.02027841  0.2476576 0.7000
 11   -473.2349490099   0.247358071071 0.19820919  0.00692352  0.1510454 0.7000
 12   -472.0268862952   1.208062714741 0.14295189  0.00489109  0.2866278 0.7000
 13   -470.6677316366   1.359154658554 0.10219065  0.00345297  0.3916725 0.7000
 14   -469.4834832889   1.184248347707 0.07277341  0.00244256  0.4593138 0.7000
 15   -468.5468563517   0.936626937224 0.28221624  0.00578799  0.5047513 0.7000
 16   -470.1583664914  -1.611510139681 0.33651525  0.00596749  0.5673833 0.7000
 17   -472.6807049681  -2.522338476750 0.23758300  0.00412971  0.4233870 0.7000
 18   -473.4744623554  -0.793757387277 0.13121546  0.00266814  0.3099230 0.7000
 19   -473.4034156421   0.071046713255 0.08712655  0.00189569  0.2666251 0.7000
               *** Restarting incremental Fock matrix formation ***
                                   *** Resetting DIIS ***

 WARNING: the maximum gradient error descreased on average only by a factor   1.0
          during the last 20 iterations

                      *** Initiating the TRAH-SCF procedure ***


TRAH GRIDX
----------

General Integration Accuracy     IntAcc      ... 3.067
Radial Grid Type                 RadialGrid  ... OptM3 with GC (2021)
Angular Grid (max. ang.)         AngularGrid ... 1 (Lebedev-50)
Angular grid pruning method      GridPruning ... 4 (adaptive)
Weight generation scheme         WeightScheme... Becke
Basis function cutoff            BFCut       ... 1.0000e-11
Integration weight cutoff        WCut        ... 1.0000e-14
Angular grids for H and He will be reduced by one unit
Partially contracted basis set               ... on
Rotationally invariant grid construction     ... off

Total number of grid points                  ...     5818
Total number of batches                      ...      101
Average number of points per batch           ...       57
Average number of grid points per atom       ...      323


TRAH GRID
---------

General Integration Accuracy     IntAcc      ... 3.467
Radial Grid Type                 RadialGrid  ... OptM3 with GC (2021)
Angular Grid (max. ang.)         AngularGrid ... 1 (Lebedev-50)
Angular grid pruning method      GridPruning ... 4 (adaptive)
Weight generation scheme         WeightScheme... Becke
Basis function cutoff            BFCut       ... 1.0000e-11
Integration weight cutoff        WCut        ... 1.0000e-14
Angular grids for H and He will be reduced by one unit
Partially contracted basis set               ... off
Rotationally invariant grid construction     ... off

Total number of grid points                  ...    12727
Total number of batches                      ...      208
Average number of points per batch           ...       61
Average number of grid points per atom       ...      707

 --------------------------------------------------------------------------------------------
   Iter.        energy            ||Error||_2        Shift      TRadius  Mac/Mic        Rej.
 --------------------------------------------------------------------------------------------
WARNING: 646 diagonal Hessian elements are negative!
    0       -471.479967373650     4.387377e+00                     0.400 (TRAH MAcro)   No
WARNING : negative HOMO - LUMO gap : -2.564385
    0     dE    -7.900876e-01     1.008010e+00    -9.1672e+00      0.240 (TRAH MIcro)
    0     dE    -8.029009e-01     7.844112e-01    -9.2236e+00      0.243 (TRAH MIcro)
    0     dE    -8.175539e-01     8.347056e-02    -9.3113e+00      0.247 (TRAH MIcro)
    0     dE    -8.175746e-01     4.592589e-02    -9.3137e+00      0.246 (TRAH MIcro)
    0     dE    -8.175924e-01     3.150196e-02    -9.3140e+00      0.246 (TRAH MIcro)
    0     dE    -8.177769e-01     2.506803e-02    -9.3144e+00      0.247 (TRAH MIcro)
    0     dE    -8.202959e-01     1.000263e-01    -9.3150e+00      0.248 (TRAH MIcro)
    0     dE    -6.107906e-01     1.222297e-01    -1.7550e+01      0.167 (TRAH MIcro)
    0     dE    -6.107684e-01     7.621113e-02    -1.7552e+01      0.167 (TRAH MIcro)
    0     dE    -6.106796e-01     7.244379e-03    -1.7554e+01      0.167 (TRAH MIcro)
WARNING: 577 diagonal Hessian elements are negative!
    1       -472.085581234427     2.848516e+00                     0.480 (TRAH MAcro)   No
WARNING : negative HOMO - LUMO gap : -2.237109
    1     dE    -3.787458e-01     5.664027e-01    -4.9130e+00      0.198 (TRAH MIcro)
    1     dE    -8.957454e-01     5.022964e+00    -5.1896e+00      0.480 (TRAH MIcro)
    1     dE    -3.232873e-01     2.724221e-01    -1.0090e+01      0.150 (TRAH MIcro)
    1     dE    -3.263871e-01     7.400036e-02    -1.0157e+01      0.151 (TRAH MIcro)
    1     dE    -3.265793e-01     4.502803e-02    -1.0160e+01      0.151 (TRAH MIcro)
    1     dE    -3.266319e-01     2.547409e-02    -1.0161e+01      0.151 (TRAH MIcro)
    1     dE    -3.266686e-01     4.575112e-03    -1.0162e+01      0.151 (TRAH MIcro)
WARNING: 530 diagonal Hessian elements are negative!
    2       -472.410537260855     1.498550e+00                     0.576 (TRAH MAcro)   No
WARNING : negative HOMO - LUMO gap : -1.985458
    2     dE    -1.145502e-01     3.915323e-01    -4.1649e+00      0.116 (TRAH MIcro)
    2     dE    -1.341485e-01     6.118246e-01    -4.3802e+00      0.140 (TRAH MIcro)
    2     dE    -9.832670e-02     1.488511e-01    -9.6835e+00      0.086 (TRAH MIcro)
    2     dE    -9.892671e-02     5.592451e-02    -9.7512e+00      0.086 (TRAH MIcro)
    2     dE    -9.911649e-02     2.086460e-02    -9.7623e+00      0.086 (TRAH MIcro)
    2     dE    -9.913963e-02     1.570615e-02    -9.7629e+00      0.086 (TRAH MIcro)
    2     dE    -9.916070e-02     3.023656e-03    -9.7636e+00      0.086 (TRAH MIcro)
WARNING: 502 diagonal Hessian elements are negative!
    3       -472.509587644464     8.370746e-01                     0.691 (TRAH MAcro)   No
WARNING : negative HOMO - LUMO gap : -1.866243
    3     dE    -4.107962e-02     2.859314e-01    -4.5791e+00      0.071 (TRAH MIcro)
    3     dE    -8.152345e-02     7.730456e-01    -5.2211e+00      0.135 (TRAH MIcro)
    3     dE    -3.286820e-02     8.578351e-02    -1.0954e+01      0.049 (TRAH MIcro)
    3     dE    -3.322219e-02     2.503858e-02    -1.1032e+01      0.049 (TRAH MIcro)
    3     dE    -3.323450e-02     1.965816e-02    -1.1034e+01      0.049 (TRAH MIcro)
    3     dE    -3.325782e-02     5.688425e-03    -1.1038e+01      0.049 (TRAH MIcro)
WARNING: 495 diagonal Hessian elements are negative!
    4       -472.542830549718     5.400832e-01                     0.829 (TRAH MAcro)   No
WARNING : negative HOMO - LUMO gap : -1.809991
    4     dE    -1.823483e-01     4.098352e+00    -3.2665e+00      0.314 (TRAH MIcro)
    4     dE    -1.247640e-01     9.905580e-02    -7.4151e+00      0.173 (TRAH MIcro)
    4     dE    -1.105091e-01     6.959489e-02    -7.4305e+00      0.162 (TRAH MIcro)
    4     dE    -8.677730e-02     2.025920e-02    -7.4474e+00      0.140 (TRAH MIcro)
    4     dE    -8.197219e-02     1.115909e-02    -7.4507e+00      0.136 (TRAH MIcro)
    4     dE    -8.096367e-02     7.294665e-03    -7.4515e+00      0.135 (TRAH MIcro)
WARNING: 490 diagonal Hessian elements are negative!
    5       -472.621713108212     9.518341e-01                     0.995 (TRAH MAcro)   No
WARNING : negative HOMO - LUMO gap : -1.703055
    5     dE    -2.320659e+00     2.851162e+00    -6.4480e+00      0.778 (TRAH MIcro)
    5     dE    -3.796861e+00     7.212533e-01    -7.4375e+00      0.952 (TRAH MIcro)
    5     dE    -3.882242e+00     1.939269e-01    -7.5060e+00      0.959 (TRAH MIcro)
    5     dE    -3.885999e+00     1.194300e-01    -7.5075e+00      0.959 (TRAH MIcro)
    5     dE    -3.890345e+00     2.540075e-02    -7.5085e+00      0.960 (TRAH MIcro)
    5     dE    -3.890745e+00     1.260512e-02    -7.5086e+00      0.960 (TRAH MIcro)
    5     dE    -3.890788e+00     3.425204e-03    -7.5086e+00      0.960 (TRAH MIcro)
WARNING: 113 diagonal Hessian elements are negative!
    6       -474.408797662874     1.860814e+00                     0.995 (TRAH MAcro)   No
WARNING : negative HOMO - LUMO gap : -0.713928
    6     dE    -2.645475e-01     1.537023e+00    -4.9371e-01      0.268 (TRAH MIcro)
    6     dE    -4.735241e-01     1.518679e+00    -7.5356e-01      0.507 (TRAH MIcro)
    6     dE    -1.518349e+00     1.608025e+00    -2.4538e+00      0.995 (TRAH MIcro)
    6     dE    -3.251875e-01     4.110511e-01    -3.6417e+00      0.253 (TRAH MIcro)
    6     dE    -3.262454e-01     7.436783e-02    -3.6657e+00      0.251 (TRAH MIcro)
    6     dE    -3.259009e-01     1.264883e-02    -3.6672e+00      0.251 (TRAH MIcro)
    6     dE    -3.259001e-01     4.335429e-03    -3.6673e+00      0.251 (TRAH MIcro)
WARNING: 84 diagonal Hessian elements are negative!
    7       -474.730512424480     8.721719e-01                     1.194 (TRAH MAcro)   No
WARNING : negative HOMO - LUMO gap : -0.630836
    7     dE    -1.211900e-01     1.371056e+00    -2.2550e-01      0.274 (TRAH MIcro)
    7     dE    -1.256891e+00     4.407659e+00    -1.4027e+00      1.194 (TRAH MIcro)
    7     dE    -1.918968e+00     6.473774e-01    -2.4912e+00      1.194 (TRAH MIcro)
    7     dE    -1.967186e+00     2.130315e-01    -2.5821e+00      1.194 (TRAH MIcro)
    7     dE    -1.976454e+00     5.636738e-02    -2.6022e+00      1.194 (TRAH MIcro)
    7     dE    -1.976630e+00     1.758632e-02    -2.6026e+00      1.194 (TRAH MIcro)
    7     dE    -1.976658e+00     7.151671e-03    -2.6027e+00      1.194 (TRAH MIcro)
WARNING: 54 diagonal Hessian elements are negative!
    8       -474.984519364288     1.769522e+00                     0.836 (TRAH MAcro)   No
WARNING : negative HOMO - LUMO gap : -0.425327
    8     dE    -1.946186e-01     1.009425e+00    -3.7270e-01      0.211 (TRAH MIcro)
    8     dE    -2.826005e-01     8.414083e-01    -4.9586e-01      0.374 (TRAH MIcro)
    8     dE    -4.856042e-01     1.069690e+00    -6.4608e-01      0.709 (TRAH MIcro)
    8     dE    -5.724474e-01     3.809721e-01    -1.2018e+00      0.708 (TRAH MIcro)
    8     dE    -7.209666e-01     2.629306e-01    -1.2790e+00      0.836 (TRAH MIcro)
    8     dE    -7.262483e-01     2.556367e-01    -1.3018e+00      0.836 (TRAH MIcro)
    8     dE    -3.482386e-01     1.130400e-01    -1.6780e+00      0.399 (TRAH MIcro)
    8     dE    -5.654933e-01     5.416564e-01    -1.6899e+00      0.643 (TRAH MIcro)
    8     dE    -2.375717e-01     4.818643e-02    -2.9102e+00      0.220 (TRAH MIcro)
    8     dE    -2.374960e-01     1.409608e-02    -2.9109e+00      0.220 (TRAH MIcro)
    8     dE    -2.374774e-01     3.289560e-03    -2.9110e+00      0.220 (TRAH MIcro)
WARNING: 12 diagonal Hessian elements are negative!
    9       -475.208321421926     4.732027e-01                     1.003 (TRAH MAcro)   No
WARNING : negative HOMO - LUMO gap : -0.112818
    9     dE    -1.757655e-02     2.284702e-01    -3.4962e-02      0.074 (TRAH MIcro)
    9     dE    -2.604926e-02     2.399869e-01    -5.0351e-02      0.186 (TRAH MIcro)
    9     dE    -4.714970e-02     2.051269e-01    -7.5117e-02      0.505 (TRAH MIcro)
    9     dE    -6.189171e-02     3.052232e-01    -8.2933e-02      0.702 (TRAH MIcro)
    9     dE    -1.038647e-01     9.546324e-02    -1.2721e-01      1.003 (TRAH MIcro)
    9     dE    -1.062082e-01     1.108403e-01    -1.3250e-01      1.003 (TRAH MIcro)
    9     dE    -1.122413e-01     2.503691e-01    -1.4119e-01      1.003 (TRAH MIcro)
    9     dE    -1.043302e-01     3.321438e-01    -1.8154e-01      0.835 (TRAH MIcro)
    9     dE    -1.513054e-01     1.302679e-01    -2.1072e-01      1.003 (TRAH MIcro)
    9     dE    -1.531586e-01     1.103344e-01    -2.1422e-01      1.003 (TRAH MIcro)
    9     dE    -1.563135e-01     3.252083e-01    -2.2162e-01      1.003 (TRAH MIcro)
    9     dE    -3.545231e-02     4.493285e-02    -4.6121e-01      0.197 (TRAH MIcro)
    9     dE    -3.624303e-02     1.652021e-02    -4.6419e-01      0.203 (TRAH MIcro)
    9     dE    -2.646795e-01     2.835747e-01    -4.7234e-01      1.003 (TRAH MIcro)
 ---------------------------------
          TRAH Step control 
 ---------------------------------
  predicted energy change = -0.264680
  actual energy  change   = 0.667930
  energy change ratio     = -2.523543
  old trust radius        = 1.003291
  new trust radius        = 0.702303
  reject step?            =  1
   10       -475.208321421926     1.769522e+00                     0.702 (TRAH MAcro)  Yes
WARNING: 12 diagonal Hessian elements are negative!
   11       -475.208321421926     4.732027e-01                     0.702 (TRAH MAcro)   No
WARNING : negative HOMO - LUMO gap : -0.112818
   11     dE    -1.757609e-02     2.284471e-01    -3.4961e-02      0.074 (TRAH MIcro)
   11     dE    -2.604939e-02     2.400185e-01    -5.0351e-02      0.186 (TRAH MIcro)
   11     dE    -4.714162e-02     2.051627e-01    -7.5111e-02      0.505 (TRAH MIcro)
   11     dE    -6.186667e-02     3.049899e-01    -8.2924e-02      0.702 (TRAH MIcro)
   11     dE    -5.939964e-02     5.234754e-02    -1.4859e-01      0.590 (TRAH MIcro)
   11     dE    -7.651362e-02     2.996904e-01    -1.5245e-01      0.702 (TRAH MIcro)
   11     dE    -9.085429e-02     2.318158e-01    -2.0786e-01      0.699 (TRAH MIcro)
   11     dE    -9.502808e-02     1.086128e-01    -2.2376e-01      0.702 (TRAH MIcro)
   11     dE    -9.603279e-02     3.463644e-02    -2.2825e-01      0.702 (TRAH MIcro)
   11     dE    -9.620947e-02     4.449636e-02    -2.2894e-01      0.702 (TRAH MIcro)
   11     dE    -8.031060e-02     3.433138e-01    -2.7076e-01      0.581 (TRAH MIcro)
   11     dE    -3.572095e-02     5.384922e-02    -4.5990e-01      0.201 (TRAH MIcro)
   11     dE    -3.605277e-02     1.274031e-02    -4.6407e-01      0.201 (TRAH MIcro)
   11     dE    -3.812642e-02     2.887844e-02    -4.6465e-01      0.222 (TRAH MIcro)
   12       -475.237782935749     8.640564e-02                     0.843 (TRAH MAcro)   No
WARNING : small    HOMO - LUMO gap : 0.012669
   12     dE    -5.960669e-04     1.206577e-01    -1.1919e-03      0.014 (TRAH MIcro)
   12     dE    -1.321762e-03     1.140184e-01    -2.6392e-03      0.041 (TRAH MIcro)
   12     dE    -3.033464e-03     8.964728e-02    -5.9775e-03      0.122 (TRAH MIcro)
   12     dE    -4.122219e-03     4.660550e-02    -7.9954e-03      0.176 (TRAH MIcro)
   12     dE    -4.234646e-03     2.990094e-02    -8.1925e-03      0.184 (TRAH MIcro)
   12     dE    -4.374082e-03     1.739210e-02    -8.4274e-03      0.195 (TRAH MIcro)
   12     dE    -4.470407e-03     1.356948e-02    -8.5771e-03      0.206 (TRAH MIcro)
   12     dE    -4.505654e-03     1.026916e-02    -8.6312e-03      0.210 (TRAH MIcro)
   12     dE    -4.538360e-03     1.010178e-02    -8.6810e-03      0.214 (TRAH MIcro)
   12     dE    -4.566216e-03     1.045974e-02    -8.7211e-03      0.217 (TRAH MIcro)
   12     dE    -4.581663e-03     4.822608e-03    -8.7427e-03      0.219 (TRAH MIcro)
   13       -475.242457528639     3.419636e-02                     1.011 (TRAH MAcro)   No
WARNING : small    HOMO - LUMO gap : 0.009300
   13     dE    -7.713602e-05     2.959182e-02    -1.5427e-04      0.005 (TRAH MIcro)
   13     dE    -1.265373e-04     3.111826e-02    -2.5305e-04      0.010 (TRAH MIcro)
   13     dE    -3.625331e-04     3.955947e-02    -7.2349e-04      0.047 (TRAH MIcro)
   13     dE    -5.910841e-04     2.256405e-02    -1.1736e-03      0.085 (TRAH MIcro)
   13     dE    -6.486653e-04     1.394363e-02    -1.2844e-03      0.101 (TRAH MIcro)
   13     dE    -7.030282e-04     1.589074e-02    -1.3864e-03      0.119 (TRAH MIcro)
   13     dE    -7.563852e-04     9.160424e-03    -1.4817e-03      0.145 (TRAH MIcro)
   13     dE    -7.801966e-04     9.313092e-03    -1.5231e-03      0.157 (TRAH MIcro)
   13     dE    -8.104414e-04     7.621551e-03    -1.5732e-03      0.174 (TRAH MIcro)
   13     dE    -8.191914e-04     5.543796e-03    -1.5875e-03      0.179 (TRAH MIcro)
   13     dE    -8.242148e-04     3.224483e-03    -1.5959e-03      0.181 (TRAH MIcro)
   14       -475.242697242167     7.026471e-02                     1.011 (TRAH MAcro)   No
WARNING : small    HOMO - LUMO gap : 0.011742
   14     dE    -3.613457e-04     6.775816e-02    -7.2260e-04      0.011 (TRAH MIcro)
   14     dE    -5.134723e-04     2.805769e-02    -1.0265e-03      0.020 (TRAH MIcro)
   14     dE    -5.875809e-04     8.799752e-03    -1.1745e-03      0.024 (TRAH MIcro)
   14     dE    -5.930686e-04     8.228933e-03    -1.1854e-03      0.025 (TRAH MIcro)
   14     dE    -6.103393e-04     6.769096e-03    -1.2196e-03      0.030 (TRAH MIcro)
   15       -475.243296678864     7.138407e-03                     1.214 (TRAH MAcro)   No
WARNING : small    HOMO - LUMO gap : 0.007551
   15     dE    -2.785716e-06     6.185243e-03    -5.5714e-06      0.001 (TRAH MIcro)
   15     dE    -5.065756e-06     5.628715e-03    -1.0131e-05      0.003 (TRAH MIcro)
   15     dE    -6.322772e-06     5.537800e-03    -1.2645e-05      0.004 (TRAH MIcro)
   15     dE    -1.138886e-05     7.101633e-03    -2.2775e-05      0.012 (TRAH MIcro)
   15     dE    -1.257330e-05     6.927962e-03    -2.5142e-05      0.013 (TRAH MIcro)
   15     dE    -1.528364e-05     2.860742e-03    -3.0556e-05      0.019 (TRAH MIcro)
   15     dE    -1.643068e-05     2.358954e-03    -3.2845e-05      0.022 (TRAH MIcro)
   15     dE    -1.776792e-05     2.936708e-03    -3.5508e-05      0.028 (TRAH MIcro)
   15     dE    -2.056823e-05     4.330150e-03    -4.1057e-05      0.044 (TRAH MIcro)
   15     dE    -2.571070e-05     6.454050e-03    -5.1092e-05      0.080 (TRAH MIcro)
   15     dE    -4.933341e-05     1.676142e-02    -9.3036e-05      0.246 (TRAH MIcro)
   15     dE    -5.637462e-04     4.723762e-02    -5.4535e-04      1.214 (TRAH MIcro)
   15     dE    -7.965318e-04     1.713681e-02    -8.6634e-04      1.214 (TRAH MIcro)
   15     dE    -8.287848e-04     9.271710e-03    -9.3649e-04      1.199 (TRAH MIcro)
 ---------------------------------
          TRAH Step control 
 ---------------------------------
  predicted energy change = -0.000829
  actual energy  change   = 0.386981
  energy change ratio     = -466.925896
  old trust radius        = 1.213580
  new trust radius        = 0.849506
  reject step?            =  1
   16       -475.243296678864     7.026471e-02                     0.850 (TRAH MAcro)  Yes
   17       -475.243296678865     7.138407e-03                     0.850 (TRAH MAcro)   No
WARNING : small    HOMO - LUMO gap : 0.007551
   17     dE    -2.785073e-06     6.185532e-03    -5.5701e-06      0.001 (TRAH MIcro)
   17     dE    -4.984128e-06     5.861526e-03    -9.9682e-06      0.003 (TRAH MIcro)
   17     dE    -6.256122e-06     5.293357e-03    -1.2512e-05      0.004 (TRAH MIcro)
   17     dE    -1.138724e-05     7.100773e-03    -2.2771e-05      0.012 (TRAH MIcro)
   17     dE    -1.257143e-05     6.924997e-03    -2.5138e-05      0.013 (TRAH MIcro)
   17     dE    -1.528285e-05     2.860751e-03    -3.0555e-05      0.019 (TRAH MIcro)
   17     dE    -1.642976e-05     2.357185e-03    -3.2843e-05      0.022 (TRAH MIcro)
   17     dE    -1.776695e-05     2.938649e-03    -3.5506e-05      0.028 (TRAH MIcro)
   17     dE    -2.057268e-05     4.329908e-03    -4.1065e-05      0.044 (TRAH MIcro)
   17     dE    -2.572465e-05     6.460716e-03    -5.1119e-05      0.080 (TRAH MIcro)
   17     dE    -4.942639e-05     1.679781e-02    -9.3184e-05      0.247 (TRAH MIcro)
   17     dE    -3.452624e-04     3.284218e-02    -6.3070e-04      0.850 (TRAH MIcro)
   17     dE    -4.578749e-04     1.192510e-02    -9.4972e-04      0.850 (TRAH MIcro)
   17     dE    -4.818020e-04     6.561819e-03    -1.0173e-03      0.850 (TRAH MIcro)
 ---------------------------------
          TRAH Step control 
 ---------------------------------
  predicted energy change = -0.000482
  actual energy  change   = 0.165092
  energy change ratio     = -342.656088
  old trust radius        = 0.849506
  new trust radius        = 0.594654
  reject step?            =  1
   18       -475.243296678865     7.026471e-02                     0.595 (TRAH MAcro)  Yes
   19       -475.243296678865     7.138407e-03                     0.595 (TRAH MAcro)   No
WARNING : small    HOMO - LUMO gap : 0.007551
   19     dE    -2.786045e-06     6.178730e-03    -5.5721e-06      0.001 (TRAH MIcro)
   19     dE    -5.115406e-06     5.632593e-03    -1.0231e-05      0.003 (TRAH MIcro)
   19     dE    -6.378422e-06     5.569669e-03    -1.2757e-05      0.004 (TRAH MIcro)
   19     dE    -1.139135e-05     7.103067e-03    -2.2780e-05      0.012 (TRAH MIcro)
   19     dE    -1.257442e-05     6.924696e-03    -2.5144e-05      0.013 (TRAH MIcro)
   19     dE    -1.528414e-05     2.862310e-03    -3.0557e-05      0.019 (TRAH MIcro)
   19     dE    -1.643096e-05     2.357589e-03    -3.2845e-05      0.022 (TRAH MIcro)
   19     dE    -1.776798e-05     2.937094e-03    -3.5508e-05      0.028 (TRAH MIcro)
   19     dE    -2.057076e-05     4.331375e-03    -4.1062e-05      0.044 (TRAH MIcro)
   19     dE    -2.571786e-05     6.458188e-03    -5.1106e-05      0.080 (TRAH MIcro)
   19     dE    -4.936920e-05     1.678811e-02    -9.3093e-05      0.246 (TRAH MIcro)
   19     dE    -2.200546e-04     2.276788e-02    -7.5503e-04      0.595 (TRAH MIcro)
   19     dE    -2.742071e-04     8.270062e-03    -1.0712e-03      0.595 (TRAH MIcro)
   19     dE    -2.128387e-04     3.680226e-03    -1.2342e-03      0.480 (TRAH MIcro)
 ---------------------------------
          TRAH Step control 
 ---------------------------------
  predicted energy change = -0.000213
  actual energy  change   = 0.023550
  energy change ratio     = -110.647757
  old trust radius        = 0.594654
  new trust radius        = 0.416258
  reject step?            =  1
   20       -475.243296678865     7.026471e-02                     0.416 (TRAH MAcro)  Yes
   21       -475.243296678865     7.138407e-03                     0.416 (TRAH MAcro)   No
WARNING : small    HOMO - LUMO gap : 0.007551
   21     dE    -2.785339e-06     6.183100e-03    -5.5707e-06      0.001 (TRAH MIcro)
   21     dE    -5.007109e-06     5.704591e-03    -1.0014e-05      0.003 (TRAH MIcro)
   21     dE    -6.278628e-06     5.467265e-03    -1.2557e-05      0.004 (TRAH MIcro)
   21     dE    -1.138688e-05     7.101295e-03    -2.2771e-05      0.012 (TRAH MIcro)
   21     dE    -1.257202e-05     6.928631e-03    -2.5139e-05      0.013 (TRAH MIcro)
   21     dE    -1.528357e-05     2.860508e-03    -3.0556e-05      0.019 (TRAH MIcro)
   21     dE    -1.643043e-05     2.357298e-03    -3.2844e-05      0.022 (TRAH MIcro)
   21     dE    -1.776733e-05     2.936010e-03    -3.5507e-05      0.028 (TRAH MIcro)
   21     dE    -2.056645e-05     4.329502e-03    -4.1053e-05      0.044 (TRAH MIcro)
   21     dE    -2.570411e-05     6.450791e-03    -5.1079e-05      0.080 (TRAH MIcro)
   21     dE    -4.930221e-05     1.674942e-02    -9.2985e-05      0.246 (TRAH MIcro)
   21     dE    -1.254871e-04     1.364429e-02    -1.0157e-03      0.364 (TRAH MIcro)
   21     dE    -1.712244e-04     5.721272e-03    -1.2430e-03      0.416 (TRAH MIcro)
   21     dE    -1.768057e-04     3.196955e-03    -1.3099e-03      0.416 (TRAH MIcro)
 ---------------------------------
          TRAH Step control 
 ---------------------------------
  predicted energy change = -0.000177
  actual energy  change   = 0.013809
  energy change ratio     = -78.101862
  old trust radius        = 0.416258
  new trust radius        = 0.291381
  reject step?            =  1
   22       -475.243296678865     7.026471e-02                     0.291 (TRAH MAcro)  Yes
   23       -475.243296678865     7.138407e-03                     0.291 (TRAH MAcro)   No
WARNING : small    HOMO - LUMO gap : 0.007551
   23     dE    -2.786029e-06     6.181864e-03    -5.5721e-06      0.001 (TRAH MIcro)
   23     dE    -5.095063e-06     5.553769e-03    -1.0190e-05      0.003 (TRAH MIcro)
   23     dE    -6.341129e-06     5.576967e-03    -1.2682e-05      0.004 (TRAH MIcro)
   23     dE    -1.138704e-05     7.102899e-03    -2.2771e-05      0.012 (TRAH MIcro)
   23     dE    -1.257130e-05     6.927984e-03    -2.5138e-05      0.013 (TRAH MIcro)
   23     dE    -1.528297e-05     2.861576e-03    -3.0555e-05      0.019 (TRAH MIcro)
   23     dE    -1.643023e-05     2.357405e-03    -3.2844e-05      0.022 (TRAH MIcro)
   23     dE    -1.776714e-05     2.937161e-03    -3.5507e-05      0.028 (TRAH MIcro)
   23     dE    -2.056862e-05     4.330308e-03    -4.1057e-05      0.044 (TRAH MIcro)
   23     dE    -2.571207e-05     6.455015e-03    -5.1095e-05      0.080 (TRAH MIcro)
   23     dE    -4.934801e-05     1.676721e-02    -9.3059e-05      0.246 (TRAH MIcro)
   23     dE    -9.967778e-05     1.078091e-02    -1.1833e-03      0.291 (TRAH MIcro)
   23     dE    -1.112522e-04     3.910096e-03    -1.4938e-03      0.290 (TRAH MIcro)
   23     dE    -8.049430e-05     1.593606e-03    -1.8682e-03      0.211 (TRAH MIcro)
 ---------------------------------
          TRAH Step control 
 ---------------------------------
  predicted energy change = -0.000080
  actual energy  change   = 0.000900
  energy change ratio     = -11.180799
  old trust radius        = 0.291381
  new trust radius        = 0.203966
  reject step?            =  1
   24       -475.243296678865     7.026471e-02                     0.204 (TRAH MAcro)  Yes
   25       -475.243296678865     7.138407e-03                     0.204 (TRAH MAcro)   No
WARNING : small    HOMO - LUMO gap : 0.007551
   25     dE    -2.785612e-06     6.182774e-03    -5.5712e-06      0.001 (TRAH MIcro)
   25     dE    -5.048419e-06     5.672347e-03    -1.0097e-05      0.003 (TRAH MIcro)
   25     dE    -6.301597e-06     5.504128e-03    -1.2603e-05      0.004 (TRAH MIcro)
   25     dE    -1.138714e-05     7.102282e-03    -2.2771e-05      0.012 (TRAH MIcro)
   25     dE    -1.257165e-05     6.927973e-03    -2.5139e-05      0.013 (TRAH MIcro)
   25     dE    -1.528336e-05     2.863210e-03    -3.0556e-05      0.019 (TRAH MIcro)
   25     dE    -1.643068e-05     2.357933e-03    -3.2845e-05      0.022 (TRAH MIcro)
   25     dE    -1.776737e-05     2.936124e-03    -3.5507e-05      0.028 (TRAH MIcro)
   25     dE    -2.056566e-05     4.331752e-03    -4.1051e-05      0.044 (TRAH MIcro)
   25     dE    -2.570315e-05     6.450149e-03    -5.1077e-05      0.080 (TRAH MIcro)
   25     dE    -4.744229e-05     1.366728e-02    -3.1873e-04      0.204 (TRAH MIcro)
   25     dE    -6.312054e-05     6.344252e-03    -1.7127e-03      0.179 (TRAH MIcro)
   25     dE    -7.648347e-05     2.681385e-03    -1.8442e-03      0.204 (TRAH MIcro)
   25     dE    -7.774292e-05     1.545670e-03    -1.9097e-03      0.204 (TRAH MIcro)
 ---------------------------------
          TRAH Step control 
 ---------------------------------
  predicted energy change = -0.000078
  actual energy  change   = 0.000775
  energy change ratio     = -9.970695
  old trust radius        = 0.203966
  new trust radius        = 0.142777
  reject step?            =  1
   26       -475.243296678865     7.026471e-02                     0.143 (TRAH MAcro)  Yes
   27       -475.243296678865     7.138407e-03                     0.143 (TRAH MAcro)   No
WARNING : small    HOMO - LUMO gap : 0.007551
   27     dE    -2.786285e-06     6.177686e-03    -5.5726e-06      0.001 (TRAH MIcro)
   27     dE    -5.122027e-06     5.509824e-03    -1.0244e-05      0.003 (TRAH MIcro)
   27     dE    -6.384269e-06     5.689772e-03    -1.2768e-05      0.004 (TRAH MIcro)
   27     dE    -1.139085e-05     7.103036e-03    -2.2779e-05      0.012 (TRAH MIcro)
   27     dE    -1.257398e-05     6.924605e-03    -2.5143e-05      0.013 (TRAH MIcro)
   27     dE    -1.528365e-05     2.860014e-03    -3.0556e-05      0.019 (TRAH MIcro)
   27     dE    -1.643033e-05     2.357444e-03    -3.2844e-05      0.022 (TRAH MIcro)
   27     dE    -1.776715e-05     2.936012e-03    -3.5507e-05      0.028 (TRAH MIcro)
   27     dE    -2.056284e-05     4.327616e-03    -4.1046e-05      0.044 (TRAH MIcro)
   27     dE    -2.569345e-05     6.445345e-03    -5.1059e-05      0.080 (TRAH MIcro)
   27     dE    -4.160690e-05     9.202909e-03    -8.8431e-04      0.143 (TRAH MIcro)
   27     dE    -5.215830e-05     4.915657e-03    -2.0642e-03      0.143 (TRAH MIcro)
   27     dE    -5.470840e-05     1.804427e-03    -2.3533e-03      0.143 (TRAH MIcro)
   27     dE    -5.529144e-05     1.066097e-03    -2.4175e-03      0.143 (TRAH MIcro)
 ---------------------------------
          TRAH Step control 
 ---------------------------------
  predicted energy change = -0.000055
  actual energy  change   = 0.000142
  energy change ratio     = -2.577247
  old trust radius        = 0.142777
  new trust radius        = 0.099944
  reject step?            =  1
   28       -475.243296678865     7.026471e-02                     0.100 (TRAH MAcro)  Yes
   29       -475.243296678865     7.138407e-03                     0.100 (TRAH MAcro)   No
WARNING : small    HOMO - LUMO gap : 0.007551
   29     dE    -2.785087e-06     6.183047e-03    -5.5702e-06      0.001 (TRAH MIcro)
   29     dE    -4.991478e-06     5.856808e-03    -9.9829e-06      0.003 (TRAH MIcro)
   29     dE    -6.283371e-06     5.365743e-03    -1.2567e-05      0.004 (TRAH MIcro)
   29     dE    -1.139349e-05     7.104867e-03    -2.2784e-05      0.012 (TRAH MIcro)
   29     dE    -1.257633e-05     6.923290e-03    -2.5148e-05      0.013 (TRAH MIcro)
   29     dE    -1.528369e-05     2.862274e-03    -3.0556e-05      0.019 (TRAH MIcro)
   29     dE    -1.643059e-05     2.357934e-03    -3.2845e-05      0.022 (TRAH MIcro)
   29     dE    -1.776806e-05     2.937642e-03    -3.5509e-05      0.028 (TRAH MIcro)
   29     dE    -2.057104e-05     4.331154e-03    -4.1062e-05      0.044 (TRAH MIcro)
   29     dE    -2.571909e-05     6.458492e-03    -5.1108e-05      0.080 (TRAH MIcro)
   29     dE    -3.527696e-05     6.051507e-03    -1.7120e-03      0.100 (TRAH MIcro)
   29     dE    -3.366307e-05     2.330839e-03    -3.5492e-03      0.078 (TRAH MIcro)
   29     dE    -3.570173e-05     9.427340e-04    -3.6148e-03      0.083 (TRAH MIcro)
   29     dE    -3.623365e-05     6.039962e-04    -3.6322e-03      0.084 (TRAH MIcro)
   30       -475.243313000613     1.413110e-02                     0.100 (TRAH MAcro)   No
WARNING : small    HOMO - LUMO gap : 0.008802
   30     dE    -1.651305e-05     1.390242e-02    -3.3026e-05      0.002 (TRAH MIcro)
   30     dE    -2.244506e-05     5.353224e-03    -4.4889e-05      0.004 (TRAH MIcro)
   30     dE    -2.469142e-05     1.400020e-03    -4.9382e-05      0.005 (TRAH MIcro)
   31       -475.243337749297     1.396884e-03                     0.120 (TRAH MAcro)   No
WARNING : small    HOMO - LUMO gap : 0.007560
   31     dE    -1.064118e-07     1.104849e-03    -2.1282e-07      0.000 (TRAH MIcro)
   31     dE    -2.388781e-06     7.881408e-03    -4.7771e-06      0.009 (TRAH MIcro)
   31     dE    -9.273496e-06     9.446283e-03    -1.8521e-05      0.038 (TRAH MIcro)
   31     dE    -1.931677e-05     1.604647e-02    -3.8387e-05      0.080 (TRAH MIcro)
   31     dE    -5.287330e-05     1.063682e-02    -4.0894e-03      0.114 (TRAH MIcro)
   31     dE    -6.365202e-05     7.724655e-03    -5.0281e-03      0.120 (TRAH MIcro)
   31     dE    -7.211448e-05     5.589524e-03    -6.2864e-03      0.120 (TRAH MIcro)
   31     dE    -7.486253e-05     3.185912e-03    -6.6256e-03      0.120 (TRAH MIcro)
   31     dE    -7.567834e-05     1.148906e-03    -6.7372e-03      0.120 (TRAH MIcro)
   31     dE    -7.581257e-05     5.657152e-04    -6.7531e-03      0.120 (TRAH MIcro)
   31     dE    -7.586489e-05     4.703367e-04    -6.7565e-03      0.120 (TRAH MIcro)
   31     dE    -7.591681e-05     4.393750e-04    -6.7560e-03      0.120 (TRAH MIcro)
   31     dE    -7.594936e-05     2.345104e-04    -6.7541e-03      0.120 (TRAH MIcro)
   31     dE    -7.595724e-05     1.247113e-04    -6.7533e-03      0.120 (TRAH MIcro)
 ---------------------------------
          TRAH Step control 
 ---------------------------------
  predicted energy change = -0.000076
  actual energy  change   = 0.000019
  energy change ratio     = -0.256496
  old trust radius        = 0.119932
  new trust radius        = 0.083953
  reject step?            =  1
   32       -475.243337749297     1.413110e-02                     0.084 (TRAH MAcro)  Yes
   33       -475.243337749297     1.396884e-03                     0.084 (TRAH MAcro)   No
WARNING : small    HOMO - LUMO gap : 0.007560
   33     dE    -1.063755e-07     1.105643e-03    -2.1275e-07      0.000 (TRAH MIcro)
   33     dE    -1.951468e-06     7.404270e-03    -3.9027e-06      0.008 (TRAH MIcro)
   33     dE    -9.264390e-06     9.360625e-03    -1.8503e-05      0.038 (TRAH MIcro)
   33     dE    -1.931303e-05     1.604435e-02    -3.8380e-05      0.080 (TRAH MIcro)
   33     dE    -3.890576e-05     7.819926e-03    -5.5110e-03      0.084 (TRAH MIcro)
   33     dE    -3.235858e-05     4.110981e-03    -8.2494e-03      0.065 (TRAH MIcro)
   33     dE    -3.843530e-05     3.265867e-03    -8.9091e-03      0.071 (TRAH MIcro)
   33     dE    -4.036909e-05     1.885248e-03    -9.1100e-03      0.072 (TRAH MIcro)
   33     dE    -4.098225e-05     7.127254e-04    -9.1789e-03      0.073 (TRAH MIcro)
   33     dE    -4.105938e-05     4.327144e-04    -9.1928e-03      0.073 (TRAH MIcro)
   33     dE    -4.104679e-05     4.354306e-04    -9.2008e-03      0.073 (TRAH MIcro)
   33     dE    -4.097619e-05     3.458646e-04    -9.2093e-03      0.073 (TRAH MIcro)
   33     dE    -4.092861e-05     1.491762e-04    -9.2129e-03      0.073 (TRAH MIcro)
   33     dE    -4.091775e-05     7.399124e-05    -9.2135e-03      0.073 (TRAH MIcro)
   34       -475.243366382819     1.027994e-02                     0.084 (TRAH MAcro)   No
WARNING : small    HOMO - LUMO gap : 0.008521
   34     dE    -8.718404e-06     9.833014e-03    -1.7437e-05      0.002 (TRAH MIcro)
   34     dE    -1.200226e-05     3.652515e-03    -2.4004e-05      0.003 (TRAH MIcro)
   34     dE    -1.338359e-05     1.467737e-03    -2.6767e-05      0.004 (TRAH MIcro)
   34     dE    -1.874044e-05     8.161309e-03    -3.7471e-05      0.016 (TRAH MIcro)
   34     dE    -3.476153e-05     7.809370e-03    -6.9263e-05      0.061 (TRAH MIcro)
   34     dE    -4.614427e-05     4.466271e-03    -1.1178e-03      0.084 (TRAH MIcro)
   34     dE    -4.869303e-05     3.283669e-03    -1.8433e-03      0.084 (TRAH MIcro)
   34     dE    -5.022393e-05     1.762185e-03    -2.2572e-03      0.084 (TRAH MIcro)
   34     dE    -5.067011e-05     1.202816e-03    -2.3725e-03      0.084 (TRAH MIcro)
   34     dE    -5.108460e-05     1.510550e-03    -2.4702e-03      0.084 (TRAH MIcro)
   34     dE    -5.139595e-05     9.954652e-04    -2.5409e-03      0.084 (TRAH MIcro)
   35       -475.243430717137     1.282719e-02                     0.101 (TRAH MAcro)   No
WARNING : small    HOMO - LUMO gap : 0.008837
   35     dE    -1.366679e-05     1.259358e-02    -2.7333e-05      0.002 (TRAH MIcro)
   35     dE    -1.939183e-05     3.475869e-03    -3.8783e-05      0.004 (TRAH MIcro)
   35     dE    -2.142410e-05     2.918113e-03    -4.2847e-05      0.005 (TRAH MIcro)
   35     dE    -3.643122e-05     1.160231e-02    -7.2798e-05      0.030 (TRAH MIcro)
   35     dE    -5.387045e-05     9.296597e-03    -1.0732e-04      0.063 (TRAH MIcro)
   35     dE    -6.431442e-05     6.572537e-03    -1.2775e-04      0.083 (TRAH MIcro)
   35     dE    -7.499751e-05     6.723080e-03    -5.1999e-04      0.101 (TRAH MIcro)
   35     dE    -7.958701e-05     4.536337e-03    -1.4911e-03      0.101 (TRAH MIcro)
   35     dE    -8.192341e-05     2.451382e-03    -1.9846e-03      0.101 (TRAH MIcro)
   35     dE    -8.314495e-05     2.551822e-03    -2.2383e-03      0.101 (TRAH MIcro)
   35     dE    -8.429785e-05     2.063744e-03    -2.4801e-03      0.101 (TRAH MIcro)
   35     dE    -8.461830e-05     7.713382e-04    -2.5368e-03      0.101 (TRAH MIcro)
   36       -475.243532287703     1.790342e-02                     0.121 (TRAH MAcro)   No
WARNING : small    HOMO - LUMO gap : 0.009414
   36     dE    -2.661662e-05     1.825238e-02    -5.3233e-05      0.003 (TRAH MIcro)
   36     dE    -3.902960e-05     3.321309e-03    -7.8057e-05      0.006 (TRAH MIcro)
   36     dE    -4.366232e-05     6.190560e-03    -8.7319e-05      0.008 (TRAH MIcro)
   36     dE    -7.390663e-05     1.374867e-02    -1.4749e-04      0.047 (TRAH MIcro)
   36     dE    -8.912401e-05     8.490203e-03    -1.7741e-04      0.069 (TRAH MIcro)
   36     dE    -9.864737e-05     5.857173e-03    -1.9597e-04      0.082 (TRAH MIcro)
   36     dE    -1.066966e-04     5.561210e-03    -2.1152e-04      0.094 (TRAH MIcro)
   36     dE    -1.111050e-04     4.255791e-03    -2.1997e-04      0.101 (TRAH MIcro)
   36     dE    -1.136438e-04     2.952645e-03    -2.2481e-04      0.105 (TRAH MIcro)
   36     dE    -1.151840e-04     2.538694e-03    -2.2774e-04      0.107 (TRAH MIcro)
   36     dE    -1.162656e-04     1.739493e-03    -2.2980e-04      0.109 (TRAH MIcro)
   37       -475.243685305060     2.004899e-02                     0.145 (TRAH MAcro)   No
WARNING : small    HOMO - LUMO gap : 0.009724
   37     dE    -3.313030e-05     2.171345e-02    -6.6260e-05      0.003 (TRAH MIcro)
[...]

GRIDX 3
-------
General Integration Accuracy     IntAcc      ... 4.338
Radial Grid Type                 RadialGrid  ... OptM3 with GC (2021)
Angular Grid (max. ang.)         AngularGrid ... 3 (Lebedev-194)
Angular grid pruning method      GridPruning ... 4 (adaptive)
Weight generation scheme         WeightScheme... Becke
Basis function cutoff            BFCut       ... 1.0000e-11
Integration weight cutoff        WCut        ... 1.0000e-14
Angular grids for H and He will be reduced by one unit
Partially contracted basis set               ... on
Rotationally invariant grid construction     ... off

Total number of grid points                  ...    53800
Total number of batches                      ...      849
Average number of points per batch           ...       63
Average number of grid points per atom       ...     2989
UseSFitting                                  ... on

Time for X-Grid setup             =    1.787 sec

--------------
SCF ITERATIONS
--------------
ITER       Energy         Delta-E        Max-DP      RMS-DP      [F,P]     Damp
               ***  Starting incremental Fock matrix formation  ***
                      *** Initiating the SOSCF procedure ***
                      *** Re-Reading the Fockian *** 
                      *** Removing any level shift *** 
ITER      Energy       Delta-E        Grad      Rot      Max-DP    RMS-DP
  0   -475.52437417 -475.5243741687  0.001411  0.001411  0.002697  0.000068
               *** Restarting incremental Fock matrix formation ***
  1   -475.52444983  -0.0000756651  0.000512  0.001345  0.001189  0.000028
  2   -475.52445659  -0.0000067571  0.000201  0.004186  0.002373  0.000040
  3   -475.52443501   0.0000215807  0.002341  0.004001  0.002047  0.000036
  4   -475.52445678  -0.0000217663  0.000200  0.001293  0.001604  0.000021
  5   -475.52445161   0.0000051673  0.000737  0.001259  0.001425  0.000018
  6   -475.52445695  -0.0000053412  0.000132  0.000332  0.000485  0.000009
  7   -475.52445631   0.0000006367  0.000354  0.000247  0.000360  0.000006
  8   -475.52445708  -0.0000007696  0.000015  0.000077  0.000073  0.000002
                 **** Energy Check signals convergence ****
              ***Rediagonalizing the Fockian in SOSCF/NRSCF***

               *****************************************************
               *                     SUCCESS                       *
               *           SCF CONVERGED AFTER   9 CYCLES          *
               *****************************************************

Old exchange energy                            =    -12.243727836 Eh
New exchange energy                            =    -12.243784711 Eh
Exchange energy change after final integration =     -0.000056875 Eh
Total energy after final integration           =   -475.524513950 Eh
Final COS-X integration done in                =    18.925 sec
Total Energy       :         -475.52451395 Eh          -12939.67987 eV
  Last Energy change         ...    8.3210e-09  Tolerance :   1.0000e-08
  Last MAX-Density change    ...    3.1086e-15  Tolerance :   1.0000e-07
             **** THE GBW FILE WAS UPDATED (educts_optfreq_3.gbw) ****
             **** DENSITY educts_optfreq_3.scfp WAS UPDATED ****
             **** ENERGY FILE WAS UPDATED (educts_optfreq_3.en.tmp) ****
             **** THE GBW FILE WAS UPDATED (educts_optfreq_3.gbw) ****
             **** DENSITY educts_optfreq_3.scfp WAS UPDATED ****
Total SCF time: 0 days 0 hours 1 min 48 sec 

Maximum memory used throughout the entire SCF-calculation: 68.9 MB


-------------------------------------------------------------------------------
                          DFT DISPERSION CORRECTION                            
                                                                               
                                 DFTD4 V2.5                                    
-------------------------------------------------------------------------------
Starting D4
-------------------------   ----------------
Dispersion correction           -0.021341338
-------------------------   ----------------


-------------------------   --------------------
FINAL SINGLE POINT ENERGY      -475.545855288101
-------------------------   --------------------

------------------------------------------------------------------------------
                         ORCA SCF GRADIENT CALCULATION
------------------------------------------------------------------------------

 ... reading COSX grid (gridx3)
Gradient of the Kohn-Sham DFT energy:
Kohn-Sham wavefunction type      ... RKS
Hartree-Fock exchange scaling    ...    0.200
Number of operators              ...    1
Number of atoms                  ...   18
Basis set dimensions             ...  180
Integral neglect threshold       ... 2.5e-11
Integral primitive cutoff        ... 2.5e-12
SHARK Integral package           ... ON

Nuc. rep. gradient       (SHARK) ... done (  0.0 sec)
HCore & Overlap gradient (SHARK) ... done (  0.4 sec)
RI-J gradient            (SHARK) ... done (  2.6 sec)
COSX-gradient                    ... done ( 17.5 sec)
Exchange-correlation gradient    ... done
Dispersion correction            ... Starting D4


------------------- 
Dispersion Gradient 
------------------- 
   1  :   -0.000001712    0.000109666    0.000284831
   2  :   -0.000221711    0.000329284   -0.000123675
   3  :   -0.000197883    0.000175731   -0.000433123
   4  :    0.000000639   -0.000159488   -0.000423481
   5  :    0.000199271   -0.000420691   -0.000213916
   6  :    0.000214222   -0.000319005    0.000122205
   7  :    0.000005215    0.000213819    0.000592095
   8  :    0.000047282    0.000067953    0.000149968
   9  :   -0.000027607    0.000021585    0.000166810
  10  :   -0.000017468    0.000078273    0.000136218
  11  :   -0.000108138    0.000175533   -0.000016188
  12  :   -0.000078889    0.000084422   -0.000136307
  13  :    0.000000244   -0.000060939   -0.000162746
  14  :    0.000078464   -0.000152596   -0.000047084
  15  :    0.000107571   -0.000143903    0.000101190
  16  :    0.000007584   -0.000027058    0.000032600
  17  :    0.000010202   -0.000028960    0.000077532
  18  :   -0.000017286    0.000056373   -0.000106929

  |G| =    0.000968427

done

------------------
CARTESIAN GRADIENT
------------------

   1   C   :    0.000131892   -0.000818935    0.000280034
   2   C   :   -0.000335471    0.001231755   -0.000351806
   3   C   :    0.000713470   -0.001199215    0.000292446
   4   C   :   -0.000284949   -0.000021219   -0.000105422
   5   C   :    0.000458720    0.000067089    0.001101889
   6   C   :   -0.000360956    0.000155943    0.000410458
   7   C   :    0.000345644    0.001009826   -0.001871655
   8   H   :   -0.000124830   -0.000472074    0.000849516
   9   H   :    0.000346635   -0.000212031    0.000397051
  10   H   :   -0.000316171   -0.000080175    0.000269183
  11   H   :   -0.000320841   -0.000276792    0.000215163
  12   H   :   -0.000194854    0.000670692   -0.000255433
  13   H   :   -0.000103676    0.000003001   -0.000910587
  14   H   :   -0.000321213   -0.000146578   -0.000333887
  15   H   :    0.000290861   -0.000006587   -0.000224060
  16   N   :   -0.000387265    0.002339684    0.001428152
  17   O   :    0.000588650   -0.003147171   -0.001146787
  18   O   :   -0.000172389    0.000837880   -0.000001394

Difference to translation invariance:
           :   -0.0000467449   -0.0000649083    0.0000428616

Difference to rotation invariance:
           :    0.0007843786    0.0006447872   -0.0001228273

Norm of the cartesian gradient     ...    0.0058696884
RMS gradient                       ...    0.0007987634
MAX gradient                       ...    0.0031471712

-------
TIMINGS
-------

Total SCF gradient time            ...       30.315 sec

One electron gradient       ....       0.358 sec  (  1.2%)
RI-J Coulomb gradient       ....       2.638 sec  (  8.7%)
COSX gradient               ....      17.530 sec  ( 57.8%)
XC gradient                 ....       8.825 sec  ( 29.1%)

Maximum memory used throughout the entire SCFGRAD-calculation: 54.7 MB
------------------------------------------------------------------------------
                         ORCA GEOMETRY RELAXATION STEP
------------------------------------------------------------------------------

Reading the OPT-File                    .... done
Getting information on internals        .... done
Copying old internal coords+grads       .... done
Making the new internal coordinates     .... (new redundants).... done
Validating the new internal coordinates .... (new redundants).... done
Calculating the B-matrix                .... done
Calculating the G,G- and P matrices     .... done
Transforming gradient to internals      .... done
Projecting the internal gradient        .... done
Number of atoms                         ....  18
Number of internal coordinates          ....  97
Current Energy                          ....  -475.545855288 Eh
Current gradient norm                   ....     0.005869688 Eh/bohr
Maximum allowed component of the step   ....  0.300
Current trust radius                    ....  0.300
Updating the Hessian (BFGS)             .... done
Forming the augmented Hessian           .... done
Diagonalizing the augmented Hessian     .... done
Last element of RFO vector              ....  0.000243297
Lowest eigenvalues of augmented Hessian:
 -14.687836761 -0.000123253  0.000122850  0.000260563  0.000688658
Warning: RFO finds a terribly low value for the scaling factor
Trying a QUASI-NEWTON step instead
Doing a quasi-Newton Step:
Inverting the Hessian                   .... done
Computing the step                      .... done
Length of the computed step             ....  0.047901343
Converting the step to cartesian space:
 Initial RMS(Int)=    0.0048636445
Transforming coordinates:
 Iter   0:  RMS(Cart)=    0.0163715025 RMS(Int)=    0.0048642025
 Iter   1:  RMS(Cart)=    0.0000661714 RMS(Int)=    0.0000266992
 Iter   2:  RMS(Cart)=    0.0000002096 RMS(Int)=    0.0000000912
 Iter   3:  RMS(Cart)=    0.0000000023 RMS(Int)=    0.0000000013
done
Storing new coordinates                 .... done

                                .--------------------.
          ----------------------|Geometry convergence|-------------------------
          Item                value                   Tolerance       Converged
          ---------------------------------------------------------------------
          Energy change      -0.0000035983            0.0000010000      NO
          RMS gradient        0.0003653626            0.0000300000      NO
          MAX gradient        0.0022054384            0.0001000000      NO
          RMS step            0.0048636445            0.0006000000      NO
          MAX step            0.0218447975            0.0010000000      NO
          ........................................................
          Max(Bonds)      0.0116      Max(Angles)    0.49
          Max(Dihed)        0.49      Max(Improp)    0.00
          ---------------------------------------------------------------------

The optimization has not yet converged - more geometry cycles are needed


    ---------------------------------------------------------------------------
                         Redundant Internal Coordinates
                            (Angstroem and degrees)

        Definition                    Value    dE/dq     Step     New-Value
    ----------------------------------------------------------------------------
     1. B(C   1,C   0)                1.4249  0.000492  0.0000    1.4249   
     2. B(C   2,C   1)                1.3832  0.000203 -0.0000    1.3831   
     3. B(C   3,C   2)                1.4159 -0.000114  0.0000    1.4159   
     4. B(C   4,C   3)                1.4143  0.000568  0.0000    1.4144   
     5. B(C   5,C   0)                1.4314 -0.000163  0.0000    1.4314   
     6. B(C   5,C   4)                1.3812 -0.000041  0.0000    1.3812   
     7. B(C   6,C   0)                1.4838 -0.000250 -0.0001    1.4838   
     8. B(H   7,C   6)                1.1079  0.000091 -0.0000    1.1079   
     9. B(H   8,C   6)                1.1079  0.000257  0.0000    1.1079   
    10. B(H   9,C   6)                1.0976  0.000128 -0.0000    1.0976   
    11. B(H  10,C   1)                1.0921 -0.000038  0.0000    1.0921   
    12. B(H  11,C   2)                1.0930  0.000559 -0.0000    1.0930   
    13. B(H  12,C   3)                1.0940  0.000476  0.0003    1.0943   
    14. B(H  13,C   4)                1.0921  0.000051 -0.0000    1.0921   
    15. B(H  14,C   5)                1.0928 -0.000029 -0.0000    1.0928   
    16. B(N  15,H  12)               10.9020 -0.000306  0.0109   10.9129   
    17. B(N  15,H  11)               11.7005 -0.000362 -0.0107   11.6898   
    18. B(O  16,H  12)               10.7830 -0.000092  0.0116   10.7946   
    19. B(O  16,H  11)               11.3540  0.000231 -0.0110   11.3430   
    20. B(O  16,C   2)               12.0963  0.000246 -0.0037   12.0925   
    21. B(O  16,N  15)                1.1363 -0.002205 -0.0000    1.1363   
    22. B(O  17,O  16)                1.5674  0.000159 -0.0000    1.5674   
    23. B(O  17,N  15)                2.1243  0.000020  0.0014    2.1257   
    24. A(C   5,C   0,C   6)          119.99  0.000068   -0.00    119.98   
    25. A(C   1,C   0,C   6)          121.25 -0.000299    0.00    121.25   
    26. A(C   1,C   0,C   5)          118.76  0.000231    0.00    118.76   
    27. A(C   0,C   1,H  10)          119.00 -0.000008   -0.01    118.99   
    28. A(C   0,C   1,C   2)          120.46 -0.000279    0.00    120.46   
    29. A(C   2,C   1,H  10)          120.54  0.000286    0.01    120.55   
    30. A(H  11,C   2,O  16)           45.30  0.000224   -0.49     44.80   
    31. A(C   3,C   2,O  16)           74.56  0.000052    0.49     75.05   
    32. A(C   1,C   2,C   3)          119.98  0.000207   -0.00    119.98   
    33. A(C   3,C   2,H  11)          119.85  0.000276   -0.00    119.85   
    34. A(C   1,C   2,H  11)          120.17 -0.000483    0.00    120.17   
    35. A(C   1,C   2,O  16)          165.46 -0.000259   -0.49    164.97   
    36. A(C   2,C   3,C   4)          120.38 -0.000191    0.00    120.38   
    37. A(C   4,C   3,H  12)          119.98  0.000305   -0.00    119.98   
    38. A(C   2,C   3,H  12)          119.63 -0.000114    0.00    119.64   
    39. A(C   5,C   4,H  13)          120.65  0.000325    0.00    120.65   
    40. A(C   3,C   4,H  13)          119.62 -0.000484   -0.00    119.62   
    41. A(C   3,C   4,C   5)          119.73  0.000159    0.00    119.73   
    42. A(C   4,C   5,H  14)          120.26 -0.000170   -0.00    120.25   
    43. A(C   0,C   5,C   4)          120.69 -0.000128   -0.00    120.68   
    44. A(C   0,C   5,H  14)          119.06  0.000297    0.01    119.06   
    45. A(H   8,C   6,H   9)          108.95 -0.000197    0.00    108.95   
    46. A(H   7,C   6,H   9)          109.09 -0.000099    0.01    109.10   
    47. A(C   0,C   6,H   9)          113.09  0.000224    0.01    113.10   
    48. A(H   7,C   6,H   8)          104.20 -0.000857   -0.02    104.18   
    49. A(C   0,C   6,H   8)          110.36 -0.000052   -0.01    110.35   
    50. A(C   0,C   6,H   7)          110.76  0.000880    0.01    110.77   
    51. A(O  16,N  15,O  17)           46.10 -0.000158   -0.06     46.04   
    52. A(C   2,O  16,O  17)          155.51 -0.000993   -0.10    155.41   
    53. A(N  15,O  16,O  17)          102.40  0.000913    0.10    102.50   
    54. A(C   2,O  16,N  15)          101.31  0.000057    0.03    101.34   
    55. A(N  15,O  17,O  16)           31.50 -0.000755   -0.04     31.46   
    56. D(H  10,C   1,C   0,C   5)    179.40 -0.000155    0.02    179.41   
    57. D(C   2,C   1,C   0,C   5)     -0.28 -0.000075   -0.00     -0.28   
    58. D(C   2,C   1,C   0,C   6)    179.70 -0.000062    0.00    179.70   
    59. D(H  10,C   1,C   0,C   6)     -0.63 -0.000142    0.02     -0.60   
    60. D(C   3,C   2,C   1,H  10)   -179.26  0.000204   -0.02   -179.28   
    61. D(H  11,C   2,C   1,C   0)   -179.59  0.000100    0.00   -179.58   
    62. D(O  16,C   2,C   1,C   0)    179.50  0.000026   -0.01    179.50   
    63. D(O  16,C   2,C   1,H  10)     -0.17  0.000109   -0.03     -0.19   
    64. D(H  11,C   2,C   1,H  10)      0.75  0.000183   -0.02      0.73   
    65. D(C   3,C   2,C   1,C   0)      0.41  0.000122   -0.00      0.41   
    66. D(H  12,C   3,C   2,C   1)    179.96 -0.000027   -0.00    179.95   
    67. D(C   4,C   3,C   2,H  11)    179.83 -0.000042   -0.00    179.83   
    68. D(C   4,C   3,C   2,C   1)     -0.16 -0.000064    0.00     -0.16   
    69. D(H  12,C   3,C   2,H  11)     -0.05 -0.000005   -0.01     -0.06   
    70. D(C   4,C   3,C   2,O  16)   -179.92 -0.000035    0.01   -179.92   
    71. D(H  12,C   3,C   2,O  16)      0.19  0.000002    0.00      0.20   
    72. D(H  13,C   4,C   3,H  12)     -0.43 -0.000116    0.02     -0.41   
    73. D(H  13,C   4,C   3,C   2)    179.69 -0.000079    0.01    179.70   
    74. D(C   5,C   4,C   3,H  12)    179.66 -0.000083    0.01    179.67   
    75. D(C   5,C   4,C   3,C   2)     -0.23 -0.000046    0.00     -0.22   
    76. D(H  14,C   5,C   4,H  13)      0.63  0.000180   -0.01      0.61   
    77. D(C   0,C   5,C   4,H  13)   -179.56  0.000126   -0.02   -179.58   
    78. D(C   0,C   5,C   4,C   3)      0.36  0.000092   -0.01      0.35   
    79. D(H  14,C   5,C   0,C   6)     -0.27 -0.000100   -0.00     -0.27   
    80. D(H  14,C   5,C   0,C   1)    179.71 -0.000087    0.00    179.71   
    81. D(H  14,C   5,C   4,C   3)   -179.46  0.000146   -0.00   -179.46   
    82. D(C   4,C   5,C   0,C   6)    179.91 -0.000046    0.00    179.92   
    83. D(C   4,C   5,C   0,C   1)     -0.11 -0.000032    0.01     -0.10   
    84. D(H   8,C   6,C   0,C   1)    124.18  0.000156    0.00    124.18   
    85. D(H   7,C   6,C   0,C   5)     59.02 -0.000391   -0.02     59.00   
    86. D(H   7,C   6,C   0,C   1)   -120.95 -0.000404   -0.02   -120.98   
    87. D(H   9,C   6,C   0,C   5)   -178.17  0.000304    0.00   -178.17   
    88. D(H   9,C   6,C   0,C   1)      1.85  0.000290   -0.00      1.85   
    89. D(H   8,C   6,C   0,C   5)    -55.85  0.000170    0.01    -55.84   
    90. D(C   2,O  16,N  15,O  17)   -173.83  0.000218   -0.08   -173.92   
    91. D(O  17,O  16,C   2,H  11)     32.29 -0.000081   -0.49     31.81   
    92. D(O  17,O  16,C   2,C   3)   -147.41 -0.000074   -0.47   -147.88   
    93. D(O  17,O  16,C   2,C   1)     33.40  0.000011   -0.47     32.93   
    94. D(N  15,O  16,C   2,H  11)   -162.37  0.000014   -0.21   -162.58   
    95. D(N  15,O  16,C   2,C   3)     17.92  0.000021   -0.19     17.73   
    96. D(N  15,O  16,C   2,C   1)   -161.26  0.000105   -0.19   -161.45   
    97. D(N  15,O  17,O  16,C   2)    165.28  0.000046    0.28    165.55   
    ----------------------------------------------------------------------------




    ----------------------------------------------------------------------------
                                   ERROR !!!
       The optimization did not converge but reached the maximum 
       number of optimization cycles.
       As a subsequent Frequencies calculation has been requested
       ORCA will abort at this point of the run.
       Please restart the calculation with the lowest energy geometry and/or
       a larger maxiter for the geometry optimization.
    ----------------------------------------------------------------------------


[file orca_main/run.cpp, line 12331]: ORCA finished with error return - aborting the run
