20
# ORCA AIMD Position Step 0, t=0.00 fs, E_Pot=-952.69764392 Hartree, Unit is Angstrom
 C     -2.5631000115      1.3840000062     -0.2444500011
 C     -3.9380200176      1.9148500086      0.2119100009
 O     -4.9828300223      1.1280100051     -0.4112000018
 H     -4.0587100182      2.9591700133     -0.0877900004
 H     -4.0269600180      1.8376300082      1.2993200058
 C     -2.3672100106     -0.0832200004      0.1839700008
 O     -1.0872300049     -0.5499200025     -0.3111900014
 H     -3.1582200141     -0.7088400032     -0.2396900011
 H     -2.3817600107     -0.1607200007      1.2746000057
 O     -1.5221600068      2.1776100098      0.3857000017
 H     -2.4700700111      1.4519700065     -1.3322100060
 N     -6.3471300284      1.4596800065     -0.1247400006
 N     -1.2400300056      3.4963900157     -0.1014900005
 N     -0.6821100031     -1.8876000085      0.0023200000
 O     -6.5726600294      2.3732500106      0.6529200029
 O     -0.3571200016      4.0875600183      0.4947000022
 O     -1.4341800064     -2.5825500116      0.6670800030
 O     -7.1762900321      0.7494000034     -0.6656600030
 O     -1.8347000082      3.8947800174     -1.0902400049
 O      0.4013500018     -2.2193800099     -0.4458700020
20
# ORCA AIMD Position Step 1, t=1.00 fs, E_Pot=-952.68174830 Hartree, Unit is Angstrom
 C     -2.5499398735      1.3837964265     -0.2372990123
 C     -3.9453079300      1.9514098855      0.2478762090
 O     -4.9694502285      1.1279955812     -0.4113389816
 H     -3.9786716973      2.8851526748     -0.0334491486
 H     -4.0897065073      1.8883298579      1.2673191803
 C     -2.3861495050     -0.0676982812      0.1753828206
 O     -1.0836330893     -0.5596231972     -0.3186232779
 H     -3.1095542389     -0.7453883525     -0.2473549106
 H     -2.4561618089     -0.1342061076      1.2754126636
 O     -1.5199221370      2.1496556482      0.3775714445
 H     -2.4405544115      1.4324339748     -1.3885242990
 N     -6.3462865989      1.4485748878     -0.1215032869
 N     -1.2221759183      3.4880162187     -0.0998073652
 N     -0.7055394856     -1.8891326273     -0.0071008950
 O     -6.5749493154      2.3707651622      0.6645598059
 O     -0.3513175690      4.0785270864      0.4916862116
 O     -1.4337176061     -2.5865881742      0.6675203489
 O     -7.1839032090      0.7608804903     -0.6884798167
 O     -1.8418074961      3.9218356492     -1.0734361777
 O      0.4055058065     -2.2219072322     -0.4526291324
20
# ORCA AIMD Position Step 2, t=2.00 fs, E_Pot=-952.65245262 Hartree, Unit is Angstrom
 C     -2.5379699847      1.3833422923     -0.2325861225
 C     -3.9520300154      1.9843735857      0.2833385327
 O     -4.9547722690      1.1269848231     -0.4124610018
 H     -3.9020529274      2.8638512187      0.0033027200
 H     -4.1514335057      1.9362062792      1.2613658275
 C     -2.4049844796     -0.0529302869      0.1679442411
 O     -1.0796942552     -0.5672254728     -0.3268561264
 H     -3.0711485705     -0.7803336899     -0.2578832748
 H     -2.5285122003     -0.1087903676      1.2761555262
 O     -1.5169089382      2.1205658990      0.3711063656
 H     -2.4156035131      1.4150748139     -1.4310749617
 N     -6.3461069104      1.4378879843     -0.1178876214
 N     -1.2046575249      3.4801991086     -0.0990987632
 N     -0.7279249935     -1.8913703528     -0.0166965018
 O     -6.5769601584      2.3698678476      0.6775576210
 O     -0.3437246869      4.0699775676      0.4903774975
 O     -1.4354092335     -2.5916534600      0.6694613463
 O     -7.1922939728      0.7709831701     -0.7124970683
 O     -1.8504756834      3.9490037085     -1.0582509993
 O      0.4109769215     -2.2242769598     -0.4602117546
20
# ORCA AIMD Position Step 3, t=3.00 fs, E_Pot=-952.65557176 Hartree, Unit is Angstrom
 C     -2.5277495925      1.3826467529     -0.2309704152
 C     -3.9580724026      2.0105290482      0.3175331940
 O     -4.9388700204      1.1254016264     -0.4143628877
 H     -3.8273535104      2.9306046414      0.0085751825
 H     -4.2143942514      1.9790949922      1.2971490852
 C     -2.4234925322     -0.0394203380      0.1619637512
 O     -1.0756334178     -0.5725578263     -0.3356822917
 H     -3.0458442803     -0.8122355182     -0.2726439025
 H     -2.5957555033     -0.0855673991      1.2740651559
 O     -1.5126479584      2.0907117886      0.3663526381
 H     -2.3978413927      1.4012344399     -1.4520218468
 N     -6.3467062162      1.4278082820     -0.1139131845
 N     -1.1880190460      3.4729515584     -0.0997726594
 N     -0.7484234827     -1.8944576049     -0.0267361297
 O     -6.5786371769      2.3701382210      0.6916964143
 O     -0.3340667094      4.0618686666      0.4909285497
 O     -1.4393665680     -2.5978080596      0.6729406638
 O     -7.2012597546      0.7799118304     -0.7375870782
 O     -1.8605445753      3.9760966897     -1.0443050249
 O      0.4172097185     -2.2264081837     -0.4684546583
20
# ORCA AIMD Position Step 4, t=4.00 fs, E_Pot=-952.65870511 Hartree, Unit is Angstrom
 C     -2.5197884692      1.3817205779     -0.2327437530
 C     -3.9633874599      2.0325065310      0.3495346320
 O     -4.9218950568      1.1236165146     -0.4168197488
 H     -3.7563999207      3.0485919329     -0.0065414842
 H     -4.2775217684      2.0174813921      1.3675251053
 C     -2.4416845558     -0.0278652197      0.1575660686
 O     -1.0716429467     -0.5755146026     -0.3449014851
 H     -3.0336307363     -0.8375662788     -0.2912099276
 H     -2.6551431163     -0.0656488802      1.2672439168
 O     -1.5067039891      2.0605495565      0.3633524317
 H     -2.3888904399      1.3922085522     -1.4487050000
 N     -6.3482274404      1.4185109362     -0.1096564244
 N     -1.1727407636      3.4663504865     -0.1021085027
 N     -0.7663527691     -1.8985477515     -0.0373416943
 O     -6.5799350925      2.3711554858      0.7067056746
 O     -0.3222027617      4.0541457738      0.4933997175
 O     -1.4455851885     -2.6050105098      0.6779008357
 O     -7.2105379548      0.7878774211     -0.7635066171
 O     -1.8717880448      4.0028615224     -1.0312806057
 O      0.4237133448     -2.2282478420     -0.4772033535
20
# ORCA AIMD Position Step 5, t=5.00 fs, E_Pot=-952.64436950 Hartree, Unit is Angstrom
 C     -2.5145170869      1.3806504487     -0.2379180020
 C     -3.9677964274      2.0538007888      0.3792527859
 O     -4.9040332399      1.1219462093     -0.4195745667
 H     -3.6972306253      3.1699554842     -0.0247793906
 H     -4.3351967444      2.0527937275      1.4501822985
 C     -2.4597074440     -0.0189790030      0.1546802148
 O     -1.0678904973     -0.5760838779     -0.3543362398
 H     -3.0329186482     -0.8520010244     -0.3121005526
 H     -2.7046126809     -0.0500816405      1.2551395505
 O     -1.4987014617      2.0305221019      0.3621087963
 H     -2.3895748931      1.3890996663     -1.4221363620
 N     -6.3508100489      1.4101225985     -0.1052368146
 N     -1.1591319528      3.4605108183     -0.1062025168
 N     -0.7812681763     -1.9038018794     -0.0485075845
 O     -6.5808283367      2.3725168245      0.7223106564
 O     -0.3081387163      4.0467083545      0.4977293410
 O     -1.4539442564     -2.6131237714      0.6841837941
 O     -7.2198495482      0.7951076821     -0.7899715934
 O     -1.8839555605      4.0290672426     -1.0188990707
 O      0.4300727417     -2.2297718049     -0.4863269019
20
# ORCA AIMD Position Step 6, t=6.00 fs, E_Pot=-952.62499758 Hartree, Unit is Angstrom
 C     -2.5122313983      1.3795871029     -0.2461577949
 C     -3.9713654245      2.0759518352      0.4071736043
 O     -4.8854586993      1.1206663715     -0.4223522673
 H     -3.6551336657      3.2715151809     -0.0367762013
 H     -4.3816393474      2.0857672049      1.5253965110
 C     -2.4777408285     -0.0132968046      0.1530758540
 O     -1.0645219037     -0.5743431692     -0.3638479382
 H     -3.0418232030     -0.8521204474     -0.3337538491
 H     -2.7430011212     -0.0397602544      1.2387206923
 O     -1.4883501101      2.0009675223      0.3625606027
 H     -2.4000500385      1.3928418678     -1.3770736828
 N     -6.3545769949      1.4027104678     -0.1007969567
 N     -1.1472885422      3.4555627290     -0.1119712273
 N     -0.7929735962     -1.9103879129     -0.0601375101
 O     -6.5813106883      2.3738554575      0.7382754030
 O     -0.2919967977      4.0393972249      0.5037456507
 O     -1.4642410726     -2.6219466404      0.6915535821
 O     -7.2289382519      0.8018454182     -0.8167283808
 O     -1.8968147258      4.0545642977     -1.0068989011
 O      0.4359556156     -2.2309819657     -0.4957323766
20
# ORCA AIMD Position Step 7, t=7.00 fs, E_Pot=-952.60863211 Hartree, Unit is Angstrom
 C     -2.5130763468      1.3786804545     -0.2565575419
 C     -3.9742719499      2.0993235031      0.4336687199
 O     -4.8663553172      1.1200149481     -0.4248835624
 H     -3.6317788237      3.3456430425     -0.0390074758
 H     -4.4133164366      2.1163828196      1.5817535322
 C     -2.4958839971     -0.0110881235      0.1523874281
 O     -1.0616788047     -0.5704413879     -0.3733204204
 H     -3.0588479385     -0.8363900338     -0.3551077092
 H     -2.7700200233     -0.0354018213      1.2205093923
 O     -1.4754780608      1.9721271859      0.3645704947
 H     -2.4197275430      1.4042787843     -1.3238845018
 N     -6.3596145088      1.3963044405     -0.0964976620
 N     -1.1371266590      3.4516593797     -0.1191781975
 N     -0.8014558354     -1.9184493718     -0.0720655469
 O     -6.5813920339      2.3748471105      0.7543940322
 O     -0.2740019151      4.0320151225      0.5111866643
 O     -1.4762175605     -2.6312380891      0.6997184847
 O     -7.2375756680      0.8083269322     -0.8435414521
 O     -1.9101590739      4.0792474539     -0.9950430801
 O      0.4410976683     -2.2319001310     -0.5053522601
20
# ORCA AIMD Position Step 8, t=8.00 fs, E_Pot=-952.59691761 Hartree, Unit is Angstrom
 C     -2.5170468838      1.3780333207     -0.2673689040
 C     -3.9766596587      2.1238414806      0.4588521406
 O     -4.8469267295      1.1201948678     -0.4269225104
 H     -3.6270667915      3.3908225921     -0.0305027059
 H     -4.4287002000      2.1442579337      1.6141547734
 C     -2.5141032605     -0.0123139125      0.1521286804
 O     -1.0595063101     -0.5645876521     -0.3826487097
 H     -3.0831071030     -0.8055337031     -0.3758397435
 H     -2.7861658291     -0.0375107618      1.2043149913
 O     -1.4600690421      1.9441625399      0.3679034858
 H     -2.4471884016      1.4243118922     -1.2807506714
 N     -6.3659640290      1.3909184463     -0.0925094449
 N     -1.1284448900      3.4489731429     -0.1274787003
 N     -0.8068241443     -1.9280810940     -0.0840765908
 O     -6.5810938379      2.3752108642      0.7704781995
 O     -0.2544595598      4.0243538765      0.5197258990
 O     -1.4895760573     -2.6407372825      0.7083494171
 O     -7.2455618225      0.8147659639     -0.8701787011
 O     -1.9237926987      4.1030212823     -0.9831219490
 O      0.4452826968     -2.2325621586     -0.5151289607
20
# ORCA AIMD Position Step 9, t=9.00 fs, E_Pot=-952.59529012 Hartree, Unit is Angstrom
 C     -2.5239891300      1.3776859658     -0.2762600098
 C     -3.9785606258      2.1494095176      0.4825874495
 O     -4.8273865304      1.1213920307     -0.4282417593
 H     -3.6407818489      3.4057792611     -0.0105609357
 H     -4.4273682659      2.1688807252      1.6208755709
 C     -2.5322157876     -0.0166365441      0.1517445067
 O     -1.0581583023     -0.5570399103     -0.3917345299
 H     -3.1144302702     -0.7625519179     -0.3964392276
 H     -2.7925116351     -0.0463601789      1.1944195598
 O     -1.4422732334      1.9171735296      0.3722219019
 H     -2.4807320210      1.4541010752     -1.2698502133
 N     -6.3736146352      1.3865622929     -0.0890032761
 N     -1.1209805822      3.4476886234     -0.1364680234
 N     -0.8092768033     -1.9393071268     -0.0959254721
 O     -6.5804482697      2.3747058738      0.7863471015
 O     -0.2337261223      4.0162199194      0.5290010446
 O     -1.5039925934     -2.6501842061      0.7170990336
 O     -7.2527240663      0.8213483087     -0.8964026010
 O     -1.9375168845      4.1257795915     -0.9709537809
 O      0.4483364893     -2.2330160235     -0.5250071384
20
# ORCA AIMD Position Step 10, t=10.00 fs, E_Pot=-952.60651668 Hartree, Unit is Angstrom
 C     -2.5334951577      1.3776676115     -0.2817730404
 C     -3.9799222540      2.1758838347      0.5045300045
 O     -4.8079855493      1.1237593921     -0.4286501754
 H     -3.6724979267      3.3898539476      0.0211184268
 H     -4.4100462412      2.1896771660      1.6034055828
 C     -2.5499064243     -0.0234976941      0.1507392601
 O     -1.0577977416     -0.5480986646     -0.4004806885
 H     -3.1532932818     -0.7122999053     -0.4180451149
 H     -2.7902990694     -0.0619988526      1.1940250991
 O     -1.4223973730      1.8912469730      0.3771058526
 H     -2.5194840498      1.4942827820     -1.3005270096
 N     -6.3824998136      1.3832486227     -0.0861439390
 N     -1.1144590163      3.4479873664     -0.1457153471
 N     -0.8090746983     -1.9520598836     -0.1073488501
 O     -6.5795004679      2.3731304543      0.8018108695
 O     -0.2121976479      4.0074606178      0.5386322445
 O     -1.5191178686     -2.6593305286      0.7256142959
 O     -7.2589119230      0.8282247448     -0.9219490721
 O     -1.9511131745      4.1473814254     -0.9583948543
 O      0.4501218439     -2.2333205987     -0.5349214040
20
# ORCA AIMD Position Step 11, t=11.00 fs, E_Pot=-952.61947142 Hartree, Unit is Angstrom
 C     -2.5449852021      1.3781956012     -0.2843889239
 C     -3.9805852008      2.2030462517      0.5240567799
 O     -4.7890093899      1.1274094810     -0.4280006186
 H     -3.7213325825      3.3433983731      0.0641937208
 H     -4.3791301634      2.2059595913      1.5676196953
 C     -2.5668176055     -0.0322598809      0.1488192512
 O     -1.0585861038     -0.5380976322     -0.4087952476
 H     -3.2003021902     -0.6603099509     -0.4418255859
 H     -2.7805680038     -0.0842329770      1.2034783466
 O     -1.4008709239      1.8664817547      0.3820981169
 H     -2.5628760582      1.5427721681     -1.3577648637
 N     -6.3924943874      1.3809912331     -0.0840784511
 N     -1.1086205818      3.4500229423     -0.1547924074
 N     -0.8065334375     -1.9661748870     -0.1180830963
 O     -6.5783088815      2.3703256818      0.8166718960
 O     -0.1902906162      3.9979796205      0.5482415048
 O     -1.5345849095     -2.6679527211      0.7335532703
 O     -7.2640009151      0.8355092935     -0.9465334787
 O     -1.9643458541      4.1676565684     -0.9453422690
 O      0.4505424394     -2.2335452550     -0.5447943314
20
# ORCA AIMD Position Step 12, t=12.00 fs, E_Pot=-952.62056834 Hartree, Unit is Angstrom
 C     -2.5579255852      1.3796988662     -0.2853725658
 C     -3.9802540616      2.2304379885      0.5401360193
 O     -4.7707210408      1.1324334264     -0.4261771378
 H     -3.7852592324      3.2700380850      0.1166283109
 H     -4.3395881725      2.2167210926      1.5263372177
 C     -2.5827104752     -0.0423895071      0.1459055904
 O     -1.0606721503     -0.5273685143     -0.4166112723
 H     -3.2550749277     -0.6109868196     -0.4678220229
 H     -2.7641015740     -0.1125700266      1.2195216769
 O     -1.3781717769      1.8429566385      0.3867576666
 H     -2.6092248450      1.5948282369     -1.4171180005
 N     -6.4034343239      1.3797972991     -0.0829224538
 N     -1.1032249677      3.4538990478     -0.1633101434
 N     -0.8020121057     -1.9814231115     -0.1278990920
 O     -6.5769402135      2.3661752632      0.8307588516
 O     -0.1683852777      3.9877275368      0.5574864915
 O     -1.5500495789     -2.6758790124      0.7406170717
 O     -7.2679065034      0.8432918966     -0.9699070951
 O     -1.9769983849      4.1864555646     -0.9317106433
 O      0.4495528439     -2.2337703127     -0.5545575773
20
# ORCA AIMD Position Step 13, t=13.00 fs, E_Pot=-952.59975795 Hartree, Unit is Angstrom
 C     -2.5718576181      1.3826222059     -0.2855453567
 C     -3.9786291978      2.2567168846      0.5515553452
 O     -4.7533337830      1.1389004606     -0.4230957337
 H     -3.8595343255      3.1853908606      0.1709161537
 H     -4.2990948348      2.2201637901      1.5008006833
 C     -2.5975679281     -0.0535667243      0.1419950833
 O     -1.0641823758     -0.5162122739     -0.4238983790
 H     -3.3152380304     -0.5665900375     -0.4940791596
 H     -2.7417437392     -0.1461764894      1.2364956225
 O     -1.3547517838      1.8207021140      0.3906979360
 H     -2.6560336516      1.6454903889     -1.4605687399
 N     -6.4151479487      1.3796658126     -0.0827538545
 N     -1.0980507759      3.4596635940     -0.1709407625
 N     -0.7958941535     -1.9975540603     -0.1366204878
 O     -6.5754659806      2.3605937600      0.8439467118
 O     -0.1467800647      3.9766854726      0.5660847196
 O     -1.5652175815     -2.6829983236      0.7465629294
 O     -7.2705843914      0.8516549977     -0.9918942635
 O     -1.9889049409      4.2036838603     -0.9174093091
 O      0.4471506426     -2.2340843053     -0.5641662106
20
# ORCA AIMD Position Step 14, t=14.00 fs, E_Pot=-952.56614744 Hartree, Unit is Angstrom
 C     -2.5863945472      1.3873181416     -0.2851506095
 C     -3.9757079358      2.2785325459      0.5581118478
 O     -4.7369986083      1.1468630941     -0.4186953583
 H     -3.9369176839      3.1306107873      0.2086129540
 H     -4.2642225937      2.2136468724      1.5121432492
 C     -2.6115748711     -0.0656487553      0.1370260467
 O     -1.0692294417     -0.5048703799     -0.4306657078
 H     -3.3765551851     -0.5276948321     -0.5170051845
 H     -2.7146823539     -0.1839489449      1.2484134024
 O     -1.3309749537      1.7996896747      0.3936048749
 H     -2.7008373020      1.6909876311     -1.4787868144
 N     -6.4274817382      1.3805907549     -0.0836148948
 N     -1.0928929168      3.4673194182     -0.1774226006
 N     -0.7885664179     -2.0143312243     -0.1441274596
 O     -6.5739612559      2.3535104503      0.8561670380
 O     -0.1256701793      3.9648435873      0.5738191962
 O     -1.5798669011     -2.6892624171      0.7512093581
 O     -7.2720231174      0.8606876129     -1.0124120219
 O     -1.9999556087      4.2193170854     -0.9023220265
 O      0.4433721006     -2.2345851263     -0.5736124390
20
# ORCA AIMD Position Step 15, t=15.00 fs, E_Pot=-952.56707395 Hartree, Unit is Angstrom
 C     -2.6012345069      1.3940395848     -0.2840940901
 C     -3.9716422495      2.2913011056      0.5616546650
 O     -4.7218279307      1.1563602553     -0.4129210751
 H     -4.0153087219      3.1605038624      0.2064113001
 H     -4.2343869913      2.1957924846      1.5624604059
 C     -2.6249897672     -0.0785368029      0.1308579340
 O     -1.0759131619     -0.4935297422     -0.4369502802
 H     -3.4340938906     -0.4944467031     -0.5327131524
 H     -2.6845062067     -0.2246357235      1.2505197932
 O     -1.3071181928      1.7798651983      0.3952300047
 H     -2.7414827695      1.7287160429     -1.4681502019
 N     -6.4402961227      1.3825692809     -0.0855195260
 N     -1.0875684169      3.4768298038     -0.1825426765
 N     -0.7804164375     -2.0315365156     -0.1503376962
 O     -6.5725089399      2.3448556095      0.8673847611
 O     -0.1051704569      3.9522004640      0.5805240711
 O     -1.5938279103     -2.6946669563      0.7544191725
 O     -7.2722283208      0.8704865203     -1.0314379230
 O     -2.0100699836      4.2333824432     -0.8863199758
 O      0.4382826218     -2.2353787387     -0.5829156792
20
# ORCA AIMD Position Step 16, t=16.00 fs, E_Pot=-952.58134770 Hartree, Unit is Angstrom
 C     -2.6160429306      1.4028735279     -0.2821109060
 C     -3.9664676563      2.2957642839      0.5632925475
 O     -4.7080135350      1.1673393482     -0.4057618931
 H     -4.0991819687      3.2623628528      0.1709849718
 H     -4.2038403330      2.1689719775      1.6326811836
 C     -2.6379275052     -0.0920087902      0.1233486887
 O     -1.0842797886     -0.4824021165     -0.4427699282
 H     -3.4832747320     -0.4675772691     -0.5382741341
 H     -2.6532654331     -0.2667437902      1.2401533512
 O     -1.2835384082      1.7612941617      0.3953677864
 H     -2.7758833206      1.7567994700     -1.4287431233
 N     -6.4533737844      1.3855929932     -0.0884463614
 N     -1.0819556000      3.4880562196     -0.1860933099
 N     -0.7718911231     -2.0488562618     -0.1551557740
 O     -6.5712105389      2.3346135586      0.8775173356
 O     -0.0854671784      3.9388454071      0.5860298486
 O     -1.6068827054     -2.6992067262      0.7560711322
 O     -7.2712174499      0.8810888789     -1.0488735449
 O     -2.0191114596      4.2458586353     -0.8693720989
 O      0.4320130595     -2.2365743818     -0.5920589068
20
# ORCA AIMD Position Step 17, t=17.00 fs, E_Pot=-952.57170624 Hartree, Unit is Angstrom
 C     -2.6304590663      1.4136877412     -0.2787707214
 C     -3.9608781369      2.2963520564      0.5628500523
 O     -4.6957562800      1.1796883467     -0.3972459098
 H     -4.1843775684      3.3779064263      0.1287980286
 H     -4.1681273400      2.1378971888      1.6999257578
 C     -2.6503480571     -0.1057248340      0.1143762732
 O     -1.0943255956     -0.4716871621     -0.4481470715
 H     -3.5210187460     -0.4483360072     -0.5325532128
 H     -2.6231638974     -0.3088309530      1.2171985349
 O     -1.2606027350      1.7440812166      0.3938684981
 H     -2.8023216238      1.7745108961     -1.3645017106
 N     -6.4664614324      1.3896474829     -0.0923362117
 N     -1.0759835460      3.5007802852     -0.1879067211
 N     -0.7634772572     -2.0659409062     -0.1585019637
 O     -6.5701776948      2.3228113083      0.8864785402
 O     -0.0667485466      3.9249236657      0.5901967662
 O     -1.6188151456     -2.7028960901      0.7560828384
 O     -7.2690310871      0.8924925280     -1.0646168863
 O     -2.0269286937      4.2567299078     -0.8515046627
 O      0.4247569501     -2.2382801078     -0.6010195397
20
# ORCA AIMD Position Step 18, t=18.00 fs, E_Pot=-952.55003104 Hartree, Unit is Angstrom
 C     -2.6441245931      1.4261270068     -0.2732979200
 C     -3.9556182148      2.2955162627      0.5605214523
 O     -4.6851750815      1.1933303401     -0.3873948685
 H     -4.2637043664      3.4737925062      0.0954178731
 H     -4.1259102478      2.1069603365      1.7486809195
 C     -2.6621231227     -0.1193189060      0.1038088376
 O     -1.1060504254     -0.4615078801     -0.4531409804
 H     -3.5463673175     -0.4381876189     -0.5163881402
 H     -2.5961142041     -0.3499350988      1.1840028995
 O     -1.2385582240      1.7282560208      0.3906309125
 H     -2.8200510271      1.7832543146     -1.2848909110
 N     -6.4793513706      1.3947294423     -0.0971150107
 N     -1.0695977270      3.5147890147     -0.1878766371
 N     -0.7556455109     -2.0825145436     -0.1603320646
 O     -6.5695208649      2.3094595517      0.8942341848
 O     -0.0490960550      3.9105534217      0.5929436545
 O     -1.6294824110     -2.7057867998      0.7544131382
 O     -7.2657221722      0.9047182965     -1.0786552714
 O     -2.0334137535      4.2660440783     -0.8326962372
 O      0.4167260584     -2.2406052555     -0.6098208674
20
# ORCA AIMD Position Step 19, t=19.00 fs, E_Pot=-952.52730075 Hartree, Unit is Angstrom
 C     -2.6565991517      1.4395324012     -0.2642981780
 C     -3.9510808600      2.2939581334      0.5567561111
 O     -4.6763404569      1.2082114496     -0.3762337066
 H     -4.3325913430      3.5394304482      0.0762468305
 H     -4.0778925717      2.0793303649      1.7712353490
 C     -2.6730200816     -0.1323966914      0.0915226783
 O     -1.1194612714     -0.4519312181     -0.4578377530
 H     -3.5605569286     -0.4387189119     -0.4925014578
 H     -2.5735356127     -0.3896607070      1.1450616259
 O     -1.2175703539      1.7137958996      0.3855837005
 H     -2.8299210561      1.7877823531     -1.2078265473
 N     -6.4918615906      1.4008434092     -0.1027043123
 N     -1.0627592715      3.5298803769     -0.1859384203
 N     -0.7488507642     -2.0983584762     -0.1606168482
 O     -6.5693501556      2.2945593961      0.9007867770
 O     -0.0325180792      3.8958346203      0.5942281342
 O     -1.6387894765     -2.7079508567      0.7510431454
 O     -7.2613483469      0.9178037990     -1.0910316528
 O     -2.0384890095      4.2738831480     -0.8128866503
 O      0.4081386727     -2.2436581238     -0.6185185359
20
# ORCA AIMD Position Step 20, t=20.00 fs, E_Pot=-952.51248510 Hartree, Unit is Angstrom
 C     -2.6673656506      1.4529607322     -0.2497936264
 C     -3.9474171578      2.2917282659      0.5519563929
 O     -4.6692921317      1.2242904500     -0.3637930892
 H     -4.3884945152      3.5727984355      0.0726672964
 H     -4.0256892953      2.0572174548      1.7645688809
 C     -2.6826926907     -0.1445354771      0.0774706926
 O     -1.1345622288     -0.4429920769     -0.4623396996
 H     -3.5668982889     -0.4514836640     -0.4652477388
 H     -2.5562719881     -0.4280632872      1.1060835405
 O     -1.1977642661      1.7006600059      0.3786843957
 H     -2.8345566469      1.7962413574     -1.1590094499
 N     -6.5038018593      1.4079914782     -0.1090225735
 N     -1.0554493999      3.5458471018     -0.1820582926
 N     -0.7435319648     -2.1132839563     -0.1593348074
 O     -6.5697789354      2.2781215721      0.9061634920
 O     -0.0169823686      3.8808666581      0.5940346619
 O     -1.6466650110     -2.7094708482      0.7459685082
 O     -7.2559742257      0.9317893476     -1.1018161069
 O     -2.0420944399      4.2803429050     -0.7920017948
 O      0.3992133364     -2.2475419690     -0.6271826515
20
# ORCA AIMD Position Step 21, t=21.00 fs, E_Pot=-952.51568039 Hartree, Unit is Angstrom
 C     -2.6760147289      1.4656573866     -0.2285557241
 C     -3.9446960820      2.2888411673      0.5463850591
 O     -4.6640804801      1.2414689512     -0.3501581539
 H     -4.4291480227      3.5731711274      0.0851603661
 H     -3.9714763579      2.0421995971      1.7288186130
 C     -2.6906731219     -0.1553050133      0.0617880665
 O     -1.1513208728     -0.4347243374     -0.4667512925
 H     -3.5704942098     -0.4777935952     -0.4402053798
 H     -2.5446875818     -0.4653534213      1.0727986161
 O     -1.1792778708      1.6888192266      0.3699354570
 H     -2.8357634597      1.8145906146     -1.1567366826
 N     -6.5149348709      1.4161571479     -0.1159734744
 N     -1.0476848237      3.5624323218     -0.1762351152
 N     -0.7401045358     -2.1270943738     -0.1564761074
 O     -6.5709259577      2.2602046101      0.9104084030
 O     -0.0024544715      3.8657842554      0.5923705176
 O     -1.6530406106     -2.7104339252      0.7392051169
 O     -7.2496833562      0.9466855102     -1.1110820816
 O     -2.0441757698      4.2855212159     -0.7699996141
 O      0.3901674409     -2.2523433882     -0.6358726221
20
# ORCA AIMD Position Step 22, t=22.00 fs, E_Pot=-952.52977859 Hartree, Unit is Angstrom
 C     -2.6824916495      1.4776429515     -0.2018272350
 C     -3.9429275290      2.2853912780      0.5401406580
 O     -4.6607919485      1.2595129462     -0.3355325257
 H     -4.4523181759      3.5407817261      0.1135531956
 H     -3.9180093914      2.0350838912      1.6681615976
 C     -2.6965022400     -0.1643499844      0.0448850091
 O     -1.1696143233     -0.4271842975     -0.4711622529
 H     -3.5762320357     -0.5179916805     -0.4226866101
 H     -2.5389945574     -0.5012645583      1.0489028529
 O     -1.1622988934      1.6782899594      0.3594240631
 H     -2.8313537704      1.8390321974     -1.1925274081
 N     -6.5249482526      1.4252776950     -0.1234261516
 N     -1.0395368406      3.5792816503     -0.1685254160
 N     -0.7389301572     -2.1395539935     -0.1520731841
 O     -6.5729108288      2.2409699745      0.9135842215
 O      0.0110742842      3.8507942539      0.5892800819
 O     -1.6578436514     -2.7109317060      0.7308159747
 O     -7.2425998054      0.9624289819     -1.1188945906
 O     -2.0446898349      4.2895128234     -0.7469335911
 O      0.3812150649     -2.2581123532     -0.6446042964
20
# ORCA AIMD Position Step 23, t=23.00 fs, E_Pot=-952.54195027 Hartree, Unit is Angstrom
 C     -2.6868868026      1.4893840868     -0.1724270267
 C     -3.9420736073      2.2816084474      0.5330088557
 O     -4.6595216197      1.2780762946     -0.3202203906
 H     -4.4559956597      3.4770975661      0.1569619120
 H     -3.8681841042      2.0353171244      1.5926523135
 C     -2.6999948084     -0.1715500638      0.0273421418
 O     -1.1892540739     -0.4204286171     -0.4756497774
 H     -3.5857868047     -0.5704757652     -0.4157473941
 H     -2.5395398792     -0.5346599188      1.0347497256
 O     -1.1470189478      1.6691010039      0.3473079468
 H     -2.8179676810      1.8602463899     -1.2412026936
 N     -6.5334943292      1.4352565848     -0.1312298351
 N     -1.0311173530      3.5959845010     -0.1590442720
 N     -0.7402539373     -2.1504328988     -0.1462202661
 O     -6.5758488641      2.2206504004      0.9157941360
 O      0.0236316524      3.8361367498      0.5848534525
 O     -1.6610308677     -2.7110644646      0.7209111058
 O     -7.2348788673      0.9789091205     -1.1253436952
 O     -2.0436239810      4.2924295558     -0.7229124992
 O      0.3725214109     -2.2648621221     -0.6533599048
20
# ORCA AIMD Position Step 24, t=24.00 fs, E_Pot=-952.54852407 Hartree, Unit is Angstrom
 C     -2.6891320234      1.5011558255     -0.1429160324
 C     -3.9421683355      2.2780268069      0.5242240650
 O     -4.6603529145      1.2967562952     -0.3045796480
 H     -4.4379340070      3.3835198098      0.2141563667
 H     -3.8240220670      2.0401312271      1.5203628120
 C     -2.7013890564     -0.1771054552      0.0097313929