
                                 *****************
                                 * O   R   C   A *
                                 *****************

                                            #,                                       
                                            ###                                      
                                            ####                                     
                                            #####                                    
                                            ######                                   
                                           ########,                                 
                                     ,,################,,,,,                         
                               ,,#################################,,                 
                          ,,##########################################,,             
                       ,#########################################, ''#####,          
                    ,#############################################,,   '####,        
                  ,##################################################,,,,####,       
                ,###########''''           ''''###############################       
              ,#####''   ,,,,##########,,,,          '''####'''          '####       
            ,##' ,,,,###########################,,,                        '##       
           ' ,,###''''                  '''############,,,                           
         ,,##''                                '''############,,,,        ,,,,,,###''
      ,#''                                            '''#######################'''  
     '                                                          ''''####''''         
             ,#######,   #######,   ,#######,      ##                                
            ,#'     '#,  ##    ##  ,#'     '#,    #''#        ######   ,####,        
            ##       ##  ##   ,#'  ##            #'  '#       #        #'  '#        
            ##       ##  #######   ##           ,######,      #####,   #    #        
            '#,     ,#'  ##    ##  '#,     ,#' ,#      #,         ##   #,  ,#        
             '#######'   ##     ##  '#######'  #'      '#     #####' # '####'        



                  #######################################################
                  #                        -***-                        #
                  #          Department of theory and spectroscopy      #
                  #    Directorship and core code : Frank Neese         #
                  #        Max Planck Institute fuer Kohlenforschung    #
                  #                Kaiser Wilhelm Platz 1               #
                  #                 D-45470 Muelheim/Ruhr               #
                  #                      Germany                        #
                  #                                                     #
                  #                  All rights reserved                #
                  #                        -***-                        #
                  #######################################################



                         Program Version 5.0.4 -  RELEASE  -

 With contributions from (in alphabetic order):
   Daniel Aravena         : Magnetic Suceptibility
   Michael Atanasov       : Ab Initio Ligand Field Theory (pilot matlab implementation)
   Alexander A. Auer      : GIAO ZORA, VPT2 properties, NMR spectrum
   Ute Becker             : Parallelization
   Giovanni Bistoni       : ED, misc. LED, open-shell LED, HFLD
   Martin Brehm           : Molecular dynamics
   Dmytro Bykov           : SCF Hessian
   Vijay G. Chilkuri      : MRCI spin determinant printing, contributions to CSF-ICE
   Dipayan Datta          : RHF DLPNO-CCSD density
   Achintya Kumar Dutta   : EOM-CC, STEOM-CC
   Dmitry Ganyushin       : Spin-Orbit,Spin-Spin,Magnetic field MRCI
   Miquel Garcia          : C-PCM and meta-GGA Hessian, CC/C-PCM, Gaussian charge scheme
   Yang Guo               : DLPNO-NEVPT2, F12-NEVPT2, CIM, IAO-localization
   Andreas Hansen         : Spin unrestricted coupled pair/coupled cluster methods
   Benjamin Helmich-Paris : MC-RPA, TRAH-SCF, COSX integrals
   Lee Huntington         : MR-EOM, pCC
   Robert Izsak           : Overlap fitted RIJCOSX, COSX-SCS-MP3, EOM
   Marcus Kettner         : VPT2
   Christian Kollmar      : KDIIS, OOCD, Brueckner-CCSD(T), CCSD density, CASPT2, CASPT2-K
   Simone Kossmann        : Meta GGA functionals, TD-DFT gradient, OOMP2, MP2 Hessian
   Martin Krupicka        : Initial AUTO-CI
   Lucas Lang             : DCDCAS
   Marvin Lechner         : AUTO-CI (C++ implementation), FIC-MRCC
   Dagmar Lenk            : GEPOL surface, SMD
   Dimitrios Liakos       : Extrapolation schemes; Compound Job, initial MDCI parallelization
   Dimitrios Manganas     : Further ROCIS development; embedding schemes
   Dimitrios Pantazis     : SARC Basis sets
   Anastasios Papadopoulos: AUTO-CI, single reference methods and gradients
   Taras Petrenko         : DFT Hessian,TD-DFT gradient, ASA, ECA, R-Raman, ABS, FL, XAS/XES, NRVS
   Peter Pinski           : DLPNO-MP2, DLPNO-MP2 Gradient
   Christoph Reimann      : Effective Core Potentials
   Marius Retegan         : Local ZFS, SOC
   Christoph Riplinger    : Optimizer, TS searches, QM/MM, DLPNO-CCSD(T), (RO)-DLPNO pert. Triples
   Tobias Risthaus        : Range-separated hybrids, TD-DFT gradient, RPA, STAB
   Michael Roemelt        : Original ROCIS implementation
   Masaaki Saitow         : Open-shell DLPNO-CCSD energy and density
   Barbara Sandhoefer     : DKH picture change effects
   Avijit Sen             : IP-ROCIS
   Kantharuban Sivalingam : CASSCF convergence, NEVPT2, FIC-MRCI
   Bernardo de Souza      : ESD, SOC TD-DFT
   Georgi Stoychev        : AutoAux, RI-MP2 NMR, DLPNO-MP2 response
   Willem Van den Heuvel  : Paramagnetic NMR
   Boris Wezisla          : Elementary symmetry handling
   Frank Wennmohs         : Technical directorship


 We gratefully acknowledge several colleagues who have allowed us to
 interface, adapt or use parts of their codes:
   Stefan Grimme, W. Hujo, H. Kruse, P. Pracht,  : VdW corrections, initial TS optimization,
                  C. Bannwarth, S. Ehlert          DFT functionals, gCP, sTDA/sTD-DF
   Ed Valeev, F. Pavosevic, A. Kumar             : LibInt (2-el integral package), F12 methods
   Garnet Chan, S. Sharma, J. Yang, R. Olivares  : DMRG
   Ulf Ekstrom                                   : XCFun DFT Library
   Mihaly Kallay                                 : mrcc  (arbitrary order and MRCC methods)
   Jiri Pittner, Ondrej Demel                    : Mk-CCSD
   Frank Weinhold                                : gennbo (NPA and NBO analysis)
   Christopher J. Cramer and Donald G. Truhlar   : smd solvation model
   Lars Goerigk                                  : TD-DFT with DH, B97 family of functionals
   V. Asgeirsson, H. Jonsson                     : NEB implementation
   FAccTs GmbH                                   : IRC, NEB, NEB-TS, DLPNO-Multilevel, CI-OPT
                                                   MM, QMMM, 2- and 3-layer-ONIOM, Crystal-QMMM,
                                                   LR-CPCM, SF, NACMEs, symmetry and pop. for TD-DFT,
                                                   nearIR, NL-DFT gradient (VV10), updates on ESD,
                                                   ML-optimized integration grids
   S Lehtola, MJT Oliveira, MAL Marques          : LibXC Library
   Liviu Ungur et al                             : ANISO software


 Your calculation uses the libint2 library for the computation of 2-el integrals
 For citations please refer to: http://libint.valeyev.net

 Your ORCA version has been built with support for libXC version: 5.1.0
 For citations please refer to: https://tddft.org/programs/libxc/

 This ORCA versions uses:
   CBLAS   interface :  Fast vector & matrix operations
   LAPACKE interface :  Fast linear algebra routines
   Shared memory     :  Shared parallel matrices


Your calculation utilizes the atom-pairwise dispersion correction
based on tight binding partial charges (D4)
Cite in your paper:
E.Caldeweyher, C.Bannwarth, S.Grimme, J.Chem.Phys., (2017), 147, 034112.
E.Caldeweyher, S.Ehlert, A.Hansen, H.Neugebauer, S.Grimme, J.Chem.Phys., (2018), in progress.
   

================================================================================

----- Orbital basis set information -----
Your calculation utilizes the basis: def2-SVP
   F. Weigend and R. Ahlrichs, Phys. Chem. Chem. Phys. 7, 3297 (2005).

----- AuxJ basis set information -----
Your calculation utilizes the auxiliary basis: def2/J
   F. Weigend, Phys. Chem. Chem. Phys. 8, 1057 (2006).

================================================================================
                                        WARNINGS
                       Please study these warnings very carefully!
================================================================================


WARNING: Geometry Optimization
  ===> : Switching off AutoStart
         For restart on a previous wavefunction, please use MOREAD

INFO   : the flag for use of the SHARK integral package has been found!

================================================================================
                                       INPUT FILE
================================================================================
NAME = opt4.inp
|  1> !B3LYP DEF2-SVP OPT FREQ D4 SOSCF
|  2> 
|  3> * xyz 1 1
|  4>    C       -0.86689        2.09495       12.81668
|  5>    C        0.03680        1.09429       13.28775
|  6>    C        0.33728        0.00612       12.48928
|  7>    C       -0.24028       -0.12354       11.21092
|  8>    C       -1.13144        0.85939       10.73745
|  9>    C       -1.44731        1.95534       11.51944
| 10>    H        0.48279        1.19857       14.27985
| 11>    H        1.02785       -0.75756       12.85360
| 12>    H        0.00252       -0.98616       10.58701
| 13>    H       -1.57672        0.75632        9.74579
| 14>    H       -2.13908        2.71932       11.15621
| 15>    N       -1.16810        3.15942       13.58776
| 16>    H       -0.76585        3.27105       14.51194
| 17>    H       -1.81217        3.87503       13.26907
| 18>    N        1.16257       -1.09861       -5.20163
| 19>    O        0.32004       -1.67204       -5.78119
| 20>    O        1.47988       -0.63254       -4.17786
| 21> **                         ****END OF INPUT****
================================================================================

                       *****************************
                       * Geometry Optimization Run *
                       *****************************

Geometry optimization settings:
Update method            Update   .... BFGS
Choice of coordinates    CoordSys .... Z-matrix Internals
Initial Hessian          InHess   .... Almoef's Model

Convergence Tolerances:
Energy Change            TolE     ....  5.0000e-06 Eh
Max. Gradient            TolMAXG  ....  3.0000e-04 Eh/bohr
RMS Gradient             TolRMSG  ....  1.0000e-04 Eh/bohr
Max. Displacement        TolMAXD  ....  4.0000e-03 bohr
RMS Displacement         TolRMSD  ....  2.0000e-03 bohr
Strict Convergence                ....  False
------------------------------------------------------------------------------
                        ORCA OPTIMIZATION COORDINATE SETUP
------------------------------------------------------------------------------

The optimization will be done in new redundant internal coordinates
Making redundant internal coordinates   ...  (new redundants) done
Evaluating the initial hessian          ...  (Almloef) done
Evaluating the coordinates              ...  done
Calculating the B-matrix                .... done
Calculating the G-matrix                .... done
Diagonalizing the G-matrix              .... done
Small eigenvalue found = 2.576e-02
The first mode is                       ....   37
The number of degrees of freedom        ....   45

    -----------------------------------------------------------------
                    Redundant Internal Coordinates


    -----------------------------------------------------------------
         Definition                    Initial Value    Approx d2E/dq
    -----------------------------------------------------------------
      1. B(C   1,C   0)                  1.4282         0.542902   
      2. B(C   2,C   1)                  1.3827         0.641696   
      3. B(C   3,C   2)                  1.4088         0.583197   
      4. B(C   4,C   3)                  1.4087         0.583274   
      5. B(C   5,C   4)                  1.3829         0.641328   
      6. B(C   5,C   0)                  1.4280         0.543372   
      7. B(H   6,C   1)                  1.0927         0.356516   
      8. B(H   7,C   2)                  1.0922         0.357248   
      9. B(H   8,C   3)                  1.0919         0.357545   
     10. B(H   9,C   4)                  1.0919         0.357570   
     11. B(H  10,C   5)                  1.0928         0.356454   
     12. B(N  11,C   0)                  1.3485         0.651814   
     13. B(H  12,N  11)                  1.0141         0.426258   
     14. B(H  13,N  11)                  1.0141         0.426171   
     15. B(N  14,H   9)                 15.3091         0.000000   
     16. B(O  15,N  14)                  1.1724         1.114673   
     17. B(O  16,H   9)                 14.3227         0.000000   
     18. B(O  16,H   8)                 14.8428         0.000000   
     19. B(O  16,C   4)                 15.2155         0.000000   
     20. B(O  16,N  14)                  1.1688         1.129740   
     21. A(C   1,C   0,C   5)          119.2288         0.413999   
     22. A(C   5,C   0,N  11)          120.3869         0.424942   
     23. A(C   1,C   0,N  11)          120.3842         0.424877   
     24. A(C   0,C   1,C   2)          119.8946         0.426466   
     25. A(C   2,C   1,H   6)          120.7098         0.354370   
     26. A(C   0,C   1,H   6)          119.3956         0.344516   
     27. A(C   1,C   2,C   3)          120.4873         0.431979   
     28. A(C   3,C   2,H   7)          119.8394         0.348811   
     29. A(C   1,C   2,H   7)          119.6733         0.354493   
     30. A(C   2,C   3,H   8)          120.0026         0.348860   
     31. A(C   2,C   3,C   4)          120.0082         0.424649   
     32. A(C   4,C   3,H   8)          119.9892         0.348867   
     33. A(C   5,C   4,H   9)          119.6839         0.354513   
     34. A(C   3,C   4,H   9)          119.8248         0.348872   
     35. A(H   9,C   4,O  16)           33.9493         0.089003   
     36. A(C   5,C   4,O  16)          132.1618         0.089003   
     37. A(C   3,C   4,O  16)           98.7709         0.089003   
     38. A(C   3,C   4,C   5)          120.4913         0.431945   
     39. A(C   0,C   5,H  10)          119.4002         0.344556   
     40. A(C   0,C   5,C   4)          119.8897         0.426488   
     41. A(C   4,C   5,H  10)          120.7100         0.354325   
     42. A(H  12,N  11,H  13)          117.4274         0.301796   
     43. A(C   0,N  11,H  13)          121.2776         0.360802   
     44. A(C   0,N  11,H  12)          121.2928         0.360815   
     45. A(O  15,N  14,O  16)          145.4006         0.525562   
     46. A(C   4,O  16,N  14)          148.3388         0.089004   
     47. D(H   6,C   1,C   0,N  11)      0.0038         0.020146   
     48. D(C   2,C   1,C   0,C   5)     -0.1029         0.020146   
     49. D(H   6,C   1,C   0,C   5)    179.9790         0.020146   
     50. D(C   2,C   1,C   0,N  11)    179.9219         0.020146   
     51. D(C   3,C   2,C   1,H   6)   -179.9925         0.028620   
     52. D(C   3,C   2,C   1,C   0)      0.0905         0.028620   
     53. D(H   7,C   2,C   1,C   0)   -179.9256         0.028620   
     54. D(H   7,C   2,C   1,H   6)     -0.0086         0.028620   
     55. D(H   8,C   3,C   2,H   7)      0.0205         0.023380   
     56. D(H   8,C   3,C   2,C   1)   -179.9957         0.023380   
     57. D(C   4,C   3,C   2,H   7)   -179.9989         0.023380   
     58. D(C   4,C   3,C   2,C   1)     -0.0150         0.023380   
     59. D(H   9,C   4,C   3,C   2)    179.9483         0.025396   
     60. D(C   5,C   4,C   3,H   8)    179.9317         0.025396   
     61. D(C   5,C   4,C   3,C   2)     -0.0490         0.025396   
     62. D(O  16,C   4,C   3,H   8)    -28.5441         0.025396   
     63. D(O  16,C   4,C   3,C   2)    151.4752         0.025396   
     64. D(H   9,C   4,C   3,H   8)     -0.0710         0.025396   
     65. D(H  10,C   5,C   4,O  16)     39.5460         0.031072   
     66. D(H  10,C   5,C   4,C   3)   -179.9257         0.031072   
     67. D(C   0,C   5,C   4,O  16)   -140.4931         0.031072   
     68. D(C   0,C   5,C   4,H   9)   -179.9621         0.031072   
     69. D(C   0,C   5,C   4,C   3)      0.0352         0.031072   
     70. D(H  10,C   5,C   0,N  11)     -0.0234         0.020182   
     71. D(H  10,C   5,C   0,C   1)   -179.9986         0.020182   
     72. D(H  10,C   5,C   4,H   9)      0.0770         0.031072   
     73. D(C   4,C   5,C   0,N  11)   -179.9849         0.020182   
     74. D(C   4,C   5,C   0,C   1)      0.0399         0.020182   
     75. D(H  13,N  11,C   0,C   1)   -179.6330         0.034690   
     76. D(H  12,N  11,C   0,C   5)    179.8358         0.034690   
     77. D(H  12,N  11,C   0,C   1)     -0.1894         0.034690   
     78. D(H  13,N  11,C   0,C   5)      0.3921         0.034690   
     79. D(C   4,O  16,N  14,O  15)     12.1020         0.157334   
     80. D(N  14,O  16,C   4,H   9)    -35.7838         0.001500   
     81. D(N  14,O  16,C   4,C   5)   -117.2274         0.001500   
     82. D(N  14,O  16,C   4,C   3)     96.4327         0.001500   
    -----------------------------------------------------------------

Number of atoms                         .... 17
Number of degrees of freedom            .... 82

         *************************************************************
         *                GEOMETRY OPTIMIZATION CYCLE   1            *
         *************************************************************
---------------------------------
CARTESIAN COORDINATES (ANGSTROEM)
---------------------------------
  C     -0.866890    2.094950   12.816680
  C      0.036800    1.094290   13.287750
  C      0.337280    0.006120   12.489280
  C     -0.240280   -0.123540   11.210920
  C     -1.131440    0.859390   10.737450
  C     -1.447310    1.955340   11.519440
  H      0.482790    1.198570   14.279850
  H      1.027850   -0.757560   12.853600
  H      0.002520   -0.986160   10.587010
  H     -1.576720    0.756320    9.745790
  H     -2.139080    2.719320   11.156210
  N     -1.168100    3.159420   13.587760
  H     -0.765850    3.271050   14.511940
  H     -1.812170    3.875030   13.269070
  N      1.162570   -1.098610   -5.201630
  O      0.320040   -1.672040   -5.781190
  O      1.479880   -0.632540   -4.177860

----------------------------
CARTESIAN COORDINATES (A.U.)
----------------------------
  NO LB      ZA    FRAG     MASS         X           Y           Z
   0 C     6.0000    0    12.011   -1.638185    3.958882   24.220015
   1 C     6.0000    0    12.011    0.069542    2.067908   25.110208
   2 C     6.0000    0    12.011    0.637367    0.011565   23.601319
   3 C     6.0000    0    12.011   -0.454063   -0.233457   21.185569
   4 C     6.0000    0    12.011   -2.138112    1.624012   20.290840
   5 C     6.0000    0    12.011   -2.735020    3.695057   21.768587
   6 H     1.0000    0     1.008    0.912341    2.264969   26.985006
   7 H     1.0000    0     1.008    1.942355   -1.431581   24.289784
   8 H     1.0000    0     1.008    0.004762   -1.863572   20.006549
   9 H     1.0000    0     1.008   -2.979569    1.429238   18.416874
  10 H     1.0000    0     1.008   -4.042275    5.138770   21.082182
  11 N     7.0000    0    14.007   -2.207389    5.970439   25.677145
  12 H     1.0000    0     1.008   -1.447247    6.181389   27.423592
  13 H     1.0000    0     1.008   -3.424505    7.322745   25.074908
  14 N     7.0000    0    14.007    2.196939   -2.076072   -9.829656
  15 O     8.0000    0    15.999    0.604788   -3.159698  -10.924866
  16 O     8.0000    0    15.999    2.796568   -1.195327   -7.895011

--------------------------------
INTERNAL COORDINATES (ANGSTROEM)
--------------------------------
 C      0   0   0     0.000000000000     0.00000000     0.00000000
 C      1   0   0     1.428244725739     0.00000000     0.00000000
 C      2   1   0     1.382735159096   119.89458323     0.00000000
 C      3   2   1     1.408755322545   120.48726767     0.09051478
 C      4   3   2     1.408719763260   120.00820277     0.00000000
 C      5   4   3     1.382891398303   120.49130581   359.95099206
 H      2   1   3     1.092723116119   119.39556308   180.08190019
 H      3   2   1     1.092164424297   119.67330230   180.07440875
 H      4   3   2     1.091938090049   120.00260339   180.00433976
 H      5   4   3     1.091919071589   119.82477390   179.94830350
 H      6   5   4     1.092770427034   120.71002556   180.07426967
 N      1   2   3     1.348476255408   120.38422343   179.92191053
 H     12   1   2     1.014088256416   121.29278879   359.81061181
 H     12   1   2     1.014143556455   121.27757649   180.36698112
 N     10   5   4    15.309142355645   145.60797017   304.84475172
 O     15  10   5     1.172419958633   114.41388010   150.36981847
 O     15  10   5     1.168765114940    31.24207711   324.44486529

---------------------------
INTERNAL COORDINATES (A.U.)
---------------------------
 C      0   0   0     0.000000000000     0.00000000     0.00000000
 C      1   0   0     2.698991383863     0.00000000     0.00000000
 C      2   1   0     2.612990766435   119.89458323     0.00000000
 C      3   2   1     2.662161749315   120.48726767     0.09051478
 C      4   3   2     2.662094552004   120.00820277     0.00000000
 C      5   4   3     2.613286015748   120.49130581   359.95099206
 H      2   1   3     2.064947429669   119.39556308   180.08190019
 H      3   2   1     2.063891655133   119.67330230   180.07440875
 H      4   3   2     2.063463945390   120.00260339   180.00433976
 H      5   4   3     2.063428005709   119.82477390   179.94830350
 H      6   5   4     2.065036834342   120.71002556   180.07426967
 N      1   2   3     2.548250820817   120.38422343   179.92191053
 H     12   1   2     1.916349080251   121.29278879   359.81061181
 H     12   1   2     1.916453582182   121.27757649   180.36698112
 N     10   5   4    28.930086397383   145.60797017   304.84475172
 O     15  10   5     2.215552635759   114.41388010   150.36981847
 O     15  10   5     2.208645982117    31.24207711   324.44486529

---------------------
BASIS SET INFORMATION
---------------------
There are 4 groups of distinct atoms

 Group   1 Type C   : 7s4p1d contracted to 3s2p1d pattern {511/31/1}
 Group   2 Type H   : 4s1p contracted to 2s1p pattern {31/1}
 Group   3 Type N   : 7s4p1d contracted to 3s2p1d pattern {511/31/1}
 Group   4 Type O   : 7s4p1d contracted to 3s2p1d pattern {511/31/1}

Atom   0C    basis set group =>   1
Atom   1C    basis set group =>   1
Atom   2C    basis set group =>   1
Atom   3C    basis set group =>   1
Atom   4C    basis set group =>   1
Atom   5C    basis set group =>   1
Atom   6H    basis set group =>   2
Atom   7H    basis set group =>   2
Atom   8H    basis set group =>   2
Atom   9H    basis set group =>   2
Atom  10H    basis set group =>   2
Atom  11N    basis set group =>   3
Atom  12H    basis set group =>   2
Atom  13H    basis set group =>   2
Atom  14N    basis set group =>   3
Atom  15O    basis set group =>   4
Atom  16O    basis set group =>   4
---------------------------------
AUXILIARY/J BASIS SET INFORMATION
---------------------------------
There are 4 groups of distinct atoms

 Group   1 Type C   : 12s5p4d2f1g contracted to 6s4p3d1f1g pattern {711111/2111/211/2/1}
 Group   2 Type H   : 5s2p1d contracted to 3s1p1d pattern {311/2/1}
 Group   3 Type N   : 12s5p4d2f1g contracted to 6s4p3d1f1g pattern {711111/2111/211/2/1}
 Group   4 Type O   : 12s5p4d2f1g contracted to 6s4p3d1f1g pattern {711111/2111/211/2/1}

Atom   0C    basis set group =>   1
Atom   1C    basis set group =>   1
Atom   2C    basis set group =>   1
Atom   3C    basis set group =>   1
Atom   4C    basis set group =>   1
Atom   5C    basis set group =>   1
Atom   6H    basis set group =>   2
Atom   7H    basis set group =>   2
Atom   8H    basis set group =>   2
Atom   9H    basis set group =>   2
Atom  10H    basis set group =>   2
Atom  11N    basis set group =>   3
Atom  12H    basis set group =>   2
Atom  13H    basis set group =>   2
Atom  14N    basis set group =>   3
Atom  15O    basis set group =>   4
Atom  16O    basis set group =>   4
------------------------------------------------------------------------------
                           ORCA GTO INTEGRAL CALCULATION
                           -- RI-GTO INTEGRALS CHOSEN --
------------------------------------------------------------------------------
------------------------------------------------------------------------------
                   ___                                                        
                  /   \      - P O W E R E D   B Y -                         
                 /     \                                                     
                 |  |  |   _    _      __       _____    __    __             
                 |  |  |  | |  | |    /  \     |  _  \  |  |  /  |          
                  \  \/   | |  | |   /    \    | | | |  |  | /  /          
                 / \  \   | |__| |  /  /\  \   | |_| |  |  |/  /          
                |  |  |   |  __  | /  /__\  \  |    /   |      \           
                |  |  |   | |  | | |   __   |  |    \   |  |\   \          
                \     /   | |  | | |  |  |  |  | |\  \  |  | \   \       
                 \___/    |_|  |_| |__|  |__|  |_| \__\ |__|  \__/        
                                                                              
                      - O R C A' S   B I G   F R I E N D -                    
                                      &                                       
                       - I N T E G R A L  F E E D E R -                       
                                                                              
 v1 FN, 2020, v2 2021                                                         
------------------------------------------------------------------------------


Reading SHARK input file opt4.SHARKINP.tmp ... ok
----------------------
SHARK INTEGRAL PACKAGE
----------------------

Number of atoms                             ...     17
Number of basis functions                   ...    175
Number of shells                            ...     81
Maximum angular momentum                    ...      2
Integral batch strategy                     ... SHARK/LIBINT Hybrid
RI-J (if used) integral strategy            ... SPLIT-RIJ (Revised 2003 algorithm where possible)
Printlevel                                  ...      1
Contraction scheme used                     ... SEGMENTED contraction
Coulomb Range Separation                    ... NOT USED
Exchange Range Separation                   ... NOT USED
Finite Nucleus Model                        ... NOT USED
Auxiliary Coulomb fitting basis             ... AVAILABLE
   # of basis functions in Aux-J            ...    567
   # of shells in Aux-J                     ...    185
   Maximum angular momentum in Aux-J        ...      4
Auxiliary J/K fitting basis                 ... NOT available
Auxiliary Correlation fitting basis         ... NOT available
Auxiliary 'external' fitting basis          ... NOT available
Integral threshold                          ...     2.500000e-11
Primitive cut-off                           ...     2.500000e-12
Primitive pair pre-selection threshold      ...     2.500000e-12

Calculating pre-screening integrals         ... done (  0.1 sec) Dimension = 81
Organizing shell pair data                  ... done (  0.1 sec)
Shell pair information
Total number of shell pairs                 ...      3321
Shell pairs after pre-screening             ...      2111
Total number of primitive shell pairs       ...     12241
Primitive shell pairs kept                  ...      5918
          la=0 lb=0:    650 shell pairs
          la=1 lb=0:    759 shell pairs
          la=1 lb=1:    243 shell pairs
          la=2 lb=0:    265 shell pairs
          la=2 lb=1:    160 shell pairs
          la=2 lb=2:     34 shell pairs

Calculating one electron integrals          ... done (  0.0 sec)
Calculating RI/J V-Matrix + Cholesky decomp.... done (  0.0 sec)
Calculating Nuclear repulsion               ... done (  0.0 sec) ENN=    371.288175262618 Eh

SHARK setup successfully completed in   0.5 seconds

Maximum memory used throughout the entire GTOINT-calculation: 18.7 MB
-------------------------------------------------------------------------------
                                 ORCA SCF
-------------------------------------------------------------------------------

------------
SCF SETTINGS
------------
Hamiltonian:
 Density Functional     Method          .... DFT(GTOs)
 Exchange Functional    Exchange        .... B88
   X-Alpha parameter    XAlpha          ....  0.666667
   Becke's b parameter  XBeta           ....  0.004200
 Correlation Functional Correlation     .... LYP
 LDA part of GGA corr.  LDAOpt          .... VWN-5
 Gradients option       PostSCFGGA      .... off
 Hybrid DFT is turned on
   Fraction HF Exchange ScalHFX         ....  0.200000
   Scaling of DF-GGA-X  ScalDFX         ....  0.720000
   Scaling of DF-GGA-C  ScalDFC         ....  0.810000
   Scaling of DF-LDA-C  ScalLDAC        ....  1.000000
   Perturbative correction              ....  0.000000
   Density functional embedding theory  .... OFF
   NL short-range parameter             ....  4.800000
 RI-approximation to the Coulomb term is turned on
   Number of AuxJ basis functions       .... 567
   RIJ-COSX (HFX calculated with COS-X)).... on


General Settings:
 Integral files         IntName         .... opt4
 Hartree-Fock type      HFTyp           .... RHF
 Total Charge           Charge          ....    1
 Multiplicity           Mult            ....    1
 Number of Electrons    NEL             ....   72
 Basis Dimension        Dim             ....  175
 Nuclear Repulsion      ENuc            ....    371.2881752626 Eh

Convergence Acceleration:
 DIIS                   CNVDIIS         .... on
   Start iteration      DIISMaxIt       ....    12
   Startup error        DIISStart       ....  0.200000
   # of expansion vecs  DIISMaxEq       ....     5
   Bias factor          DIISBfac        ....   1.050
   Max. coefficient     DIISMaxC        ....  10.000
 Trust-Rad. Augm. Hess. CNVTRAH         .... auto
   Auto Start mean grad. ratio tolernc. ....  1.125000
   Auto Start start iteration           ....    20
   Auto Start num. interpolation iter.  ....    10
   Max. Number of Micro iterations      ....    16
   Max. Number of Macro iterations      .... Maxiter - #DIIS iter
   Number of Davidson start vectors     ....     2
   Converg. threshold I  (grad. norm)   ....   1.000e-05
   Converg. threshold II (energy diff.) ....   1.000e-08
   Grad. Scal. Fac. for Micro threshold ....   0.100
   Minimum threshold for Micro iter.    ....   0.010
   NR start threshold (gradient norm)   ....   0.001
   Initial trust radius                 ....   0.400
   Minimum AH scaling param. (alpha)    ....   1.000
   Maximum AH scaling param. (alpha)    .... 1000.000
   Orbital update algorithm             .... Taylor
   White noise on init. David. guess    .... on
   Maximum white noise                  ....   0.010
   Quad. conv. algorithm                .... NR
 SOSCF                  CNVSOSCF        .... on
   Start iteration      SOSCFMaxIt      ....   150
   Startup grad/error   SOSCFStart      ....  0.003300
 Level Shifting         CNVShift        .... on
   Level shift para.    LevelShift      ....    0.2500
   Turn off err/grad.   ShiftErr        ....    0.0010
 Zerner damping         CNVZerner       .... off
 Static damping         CNVDamp         .... on
   Fraction old density DampFac         ....    0.7000
   Max. Damping (<1)    DampMax         ....    0.9800
   Min. Damping (>=0)   DampMin         ....    0.0000
   Turn off err/grad.   DampErr         ....    0.1000
 Fernandez-Rico         CNVRico         .... off

SCF Procedure:
 Maximum # iterations   MaxIter         ....   125
 SCF integral mode      SCFMode         .... Direct
   Integral package                     .... SHARK and LIBINT hybrid scheme
 Reset frequency        DirectResetFreq ....    20
 Integral Threshold     Thresh          ....  2.500e-11 Eh
 Primitive CutOff       TCut            ....  2.500e-12 Eh

Convergence Tolerance:
 Convergence Check Mode ConvCheckMode   .... Total+1el-Energy
 Convergence forced     ConvForced      .... 0
 Energy Change          TolE            ....  1.000e-08 Eh
 1-El. energy change                    ....  1.000e-05 Eh
 Orbital Gradient       TolG            ....  1.000e-05
 Orbital Rotation angle TolX            ....  1.000e-05
 DIIS Error             TolErr          ....  5.000e-07


Diagonalization of the overlap matrix:
Smallest eigenvalue                        ... 3.070e-04
Time for diagonalization                   ...    0.013 sec
Threshold for overlap eigenvalues          ... 1.000e-08
Number of eigenvalues below threshold      ... 0
Time for construction of square roots      ...    0.010 sec
Total time needed                          ...    0.024 sec

Time for model grid setup =    0.533 sec

------------------------------
INITIAL GUESS: MODEL POTENTIAL
------------------------------
Loading Hartree-Fock densities                     ... done
Calculating cut-offs                               ... done
Initializing the effective Hamiltonian             ... done
Setting up the integral package (SHARK)            ... done
Starting the Coulomb interaction                   ... done (   0.7 sec)
Reading the grid                                   ... done
Mapping shells                                     ... done
Starting the XC term evaluation                    ... done (   0.5 sec)
  promolecular density results
     # of electrons  =     72.996690569
     EX              =    -62.438222775
     EC              =     -2.493546697
     EX+EC           =    -64.931769472
Transforming the Hamiltonian                       ... done (   0.0 sec)
Diagonalizing the Hamiltonian                      ... done (   0.0 sec)
Back transforming the eigenvectors                 ... done (   0.0 sec)
Now organizing SCF variables                       ... done
                      ------------------
                      INITIAL GUESS DONE (   1.8 sec)
                      ------------------
-------------------
DFT GRID GENERATION
-------------------

General Integration Accuracy     IntAcc      ... 4.388
Radial Grid Type                 RadialGrid  ... OptM3 with GC (2021)
Angular Grid (max. ang.)         AngularGrid ... 4 (Lebedev-302)
Angular grid pruning method      GridPruning ... 4 (adaptive)
Weight generation scheme         WeightScheme... Becke
Basis function cutoff            BFCut       ... 1.0000e-11
Integration weight cutoff        WCut        ... 1.0000e-14
Angular grids for H and He will be reduced by one unit
Partially contracted basis set               ... off
Rotationally invariant grid construction     ... off

Total number of grid points                  ...    83211
Total number of batches                      ...     1307
Average number of points per batch           ...       63
Average number of grid points per atom       ...     4895
Time for grid setup =    2.703 sec

--------------------
COSX GRID GENERATION
--------------------

GRIDX 1
-------
General Integration Accuracy     IntAcc      ... 3.816
Radial Grid Type                 RadialGrid  ... OptM3 with GC (2021)
Angular Grid (max. ang.)         AngularGrid ... 1 (Lebedev-50)
Angular grid pruning method      GridPruning ... 4 (adaptive)
Weight generation scheme         WeightScheme... Becke
Basis function cutoff            BFCut       ... 1.0000e-11
Integration weight cutoff        WCut        ... 1.0000e-14
Angular grids for H and He will be reduced by one unit
Partially contracted basis set               ... on
Rotationally invariant grid construction     ... off

Total number of grid points                  ...    10633
Total number of batches                      ...      172
Average number of points per batch           ...       61
Average number of grid points per atom       ...      625
UseSFitting                                  ... on

GRIDX 2
-------
General Integration Accuracy     IntAcc      ... 4.020
Radial Grid Type                 RadialGrid  ... OptM3 with GC (2021)
Angular Grid (max. ang.)         AngularGrid ... 2 (Lebedev-110)
Angular grid pruning method      GridPruning ... 4 (adaptive)
Weight generation scheme         WeightScheme... Becke
Basis function cutoff            BFCut       ... 1.0000e-11
Integration weight cutoff        WCut        ... 1.0000e-14
Angular grids for H and He will be reduced by one unit
Partially contracted basis set               ... on
Rotationally invariant grid construction     ... off

Total number of grid points                  ...    23748
Total number of batches                      ...      380
Average number of points per batch           ...       62
Average number of grid points per atom       ...     1397
UseSFitting                                  ... on

GRIDX 3
-------
General Integration Accuracy     IntAcc      ... 4.338
Radial Grid Type                 RadialGrid  ... OptM3 with GC (2021)
Angular Grid (max. ang.)         AngularGrid ... 3 (Lebedev-194)
Angular grid pruning method      GridPruning ... 4 (adaptive)
Weight generation scheme         WeightScheme... Becke
Basis function cutoff            BFCut       ... 1.0000e-11
Integration weight cutoff        WCut        ... 1.0000e-14
Angular grids for H and He will be reduced by one unit
Partially contracted basis set               ... on
Rotationally invariant grid construction     ... off

Total number of grid points                  ...    52316
Total number of batches                      ...      828
Average number of points per batch           ...       63
Average number of grid points per atom       ...     3077
UseSFitting                                  ... on

Time for X-Grid setup             =    2.552 sec

--------------
SCF ITERATIONS
--------------
ITER       Energy         Delta-E        Max-DP      RMS-DP      [F,P]     Damp
               ***  Starting incremental Fock matrix formation  ***
  0   -491.3351030941   0.000000000000 0.27054283  0.00544122  0.2190484 0.7000
  1   -491.4314373754  -0.096334281258 0.05802941  0.00193685  0.1150583 0.7000
                               ***Turning on DIIS***
  2   -491.5869059985  -0.155468623105 0.13494619  0.00404330  0.0326494 0.0000
  3   -491.6046674910  -0.017761492467 0.00918914  0.00020680  0.1166157 0.7000
  4   -491.6128945441  -0.008227053154 0.00860037  0.00020920  0.1049701 0.7000
  5   -491.6203465446  -0.007452000495 0.02852933  0.00068563  0.0940631 0.0000
  6   -491.6414980706  -0.021151526025 0.03797363  0.00092420  0.0598779 0.0000
  7   -491.6536984125  -0.012200341849 0.49629310  0.01129517  0.0225770 0.0000
  8   -490.9942444376   0.659453974851 0.00214066  0.00004961  0.2108838 0.7000
  9   -490.9960049662  -0.001760528603 0.00300431  0.00006637  0.2111690 0.7000
 10   -490.9991463132  -0.003141346949 0.00464092  0.00009719  0.2113496 0.7000
 11   -491.0051841656  -0.006037852433 0.00372946  0.00008069  0.2111118 0.7000
 12   -491.0095417681  -0.004357602472 0.19457552  0.00638830  0.2109463 0.7000
 13   -491.1178479629  -0.108306194767 0.37497444  0.00960365  0.0789276 0.0000
 14   -491.4079856654  -0.290137702515 0.02578941  0.00048034  0.2141784 0.7000
 15   -491.4570852798  -0.049099614456 0.02386556  0.00048477  0.1913349 0.7000
 16   -491.5011043765  -0.044019096706 0.01976346  0.00042025  0.1683687 0.7000
 17   -491.5352731861  -0.034168809599 0.14834620  0.00349543  0.1483480 0.7000
 18   -491.7016163589  -0.166343172774 0.47821581  0.00887108  0.0866446 0.0000
 19   -491.1202740447   0.581342314224 0.03554512  0.00045353  0.1734300 0.7000
               *** Restarting incremental Fock matrix formation ***
                                   *** Resetting DIIS ***

 WARNING: the maximum gradient error descreased on average only by a factor   1.0
          during the last 20 iterations

                      *** Initiating the TRAH-SCF procedure ***


TRAH GRIDX
----------

General Integration Accuracy     IntAcc      ... 3.067
Radial Grid Type                 RadialGrid  ... OptM3 with GC (2021)
Angular Grid (max. ang.)         AngularGrid ... 1 (Lebedev-50)
Angular grid pruning method      GridPruning ... 4 (adaptive)
Weight generation scheme         WeightScheme... Becke
Basis function cutoff            BFCut       ... 1.0000e-11
Integration weight cutoff        WCut        ... 1.0000e-14
Angular grids for H and He will be reduced by one unit
Partially contracted basis set               ... on
Rotationally invariant grid construction     ... off

Total number of grid points                  ...     5630
Total number of batches                      ...       99
Average number of points per batch           ...       56
Average number of grid points per atom       ...      331


TRAH GRID
---------

General Integration Accuracy     IntAcc      ... 3.467
Radial Grid Type                 RadialGrid  ... OptM3 with GC (2021)
Angular Grid (max. ang.)         AngularGrid ... 1 (Lebedev-50)
Angular grid pruning method      GridPruning ... 4 (adaptive)
Weight generation scheme         WeightScheme... Becke
Basis function cutoff            BFCut       ... 1.0000e-11
Integration weight cutoff        WCut        ... 1.0000e-14
Angular grids for H and He will be reduced by one unit
Partially contracted basis set               ... off
Rotationally invariant grid construction     ... off

Total number of grid points                  ...    12354
Total number of batches                      ...      201
Average number of points per batch           ...       61
Average number of grid points per atom       ...      727

 --------------------------------------------------------------------------------------------
   Iter.        energy            ||Error||_2        Shift      TRadius  Mac/Mic        Rej.
 --------------------------------------------------------------------------------------------
WARNING: 98 diagonal Hessian elements are negative!
    0       -491.189501226341     1.248772e+00                     0.400 (TRAH MAcro)   No
WARNING : negative HOMO - LUMO gap : -0.857925
    0     dE    -7.727909e-02     7.546522e-01    -1.5228e-01      0.122 (TRAH MIcro)
    0     dE    -1.284519e-01     3.627590e+00    -3.6087e-01      0.400 (TRAH MIcro)
    0     dE    -6.777314e-02     2.945104e-01    -7.2254e+00      0.077 (TRAH MIcro)
    0     dE    -6.947758e-02     3.725737e-02    -7.3405e+00      0.078 (TRAH MIcro)
    0     dE    -6.947866e-02     7.701952e-03    -7.3435e+00      0.078 (TRAH MIcro)
WARNING: 84 diagonal Hessian elements are negative!
    1       -491.258936545113     5.685668e-01                     0.480 (TRAH MAcro)   No
WARNING : negative HOMO - LUMO gap : -0.762228
    1     dE    -1.922203e-02     2.239511e-01    -3.8271e-02      0.067 (TRAH MIcro)
    1     dE    -2.390769e-02     4.410130e-01    -4.7235e-02      0.111 (TRAH MIcro)
    1     dE    -2.629898e-02     1.311856e-01    -2.5847e+00      0.086 (TRAH MIcro)
    1     dE    -1.689106e-02     6.846988e-02    -6.3141e+00      0.042 (TRAH MIcro)
    1     dE    -1.713312e-02     1.125531e-02    -6.3690e+00      0.042 (TRAH MIcro)
    1     dE    -1.713853e-02     7.090627e-03    -6.3704e+00      0.042 (TRAH MIcro)
WARNING: 73 diagonal Hessian elements are negative!
    2       -491.276076464674     2.672080e-01                     0.576 (TRAH MAcro)   No
WARNING : negative HOMO - LUMO gap : -0.718176
    2     dE    -5.280928e-03     1.337347e-01    -1.0545e-02      0.039 (TRAH MIcro)
    2     dE    -7.230605e-03     2.463209e-01    -1.4386e-02      0.072 (TRAH MIcro)
    2     dE    -2.997089e-01     2.548789e+00    -1.7438e+00      0.576 (TRAH MIcro)
    2     dE    -4.553215e-03     2.863778e-02    -6.1187e+00      0.023 (TRAH MIcro)
    2     dE    -4.607949e-03     4.672547e-03    -6.1635e+00      0.023 (TRAH MIcro)
WARNING: 67 diagonal Hessian elements are negative!
    3       -491.280685323209     1.423729e-01                     0.691 (TRAH MAcro)   No
WARNING : negative HOMO - LUMO gap : -0.698491
    3     dE    -2.037166e-03     8.997615e-02    -4.0710e-03      0.029 (TRAH MIcro)
    3     dE    -2.918444e-03     1.496603e-01    -5.8214e-03      0.052 (TRAH MIcro)
    3     dE    -3.656404e-01     3.454068e+00    -1.5037e+00      0.691 (TRAH MIcro)
    3     dE    -2.166799e-03     1.683422e-02    -2.9974e+00      0.022 (TRAH MIcro)
    3     dE    -2.172389e-03     3.417268e-03    -3.0226e+00      0.022 (TRAH MIcro)
WARNING: 64 diagonal Hessian elements are negative!
    4       -491.282858402254     6.601645e-02                     0.829 (TRAH MAcro)   No
WARNING : negative HOMO - LUMO gap : -0.685899
    4     dE    -7.584080e-04     1.648541e-01    -1.5158e-03      0.026 (TRAH MIcro)
    4     dE    -2.655806e-01     1.545587e+00    -2.0286e+00      0.508 (TRAH MIcro)
    4     dE    -9.459137e-01     4.555328e-01    -2.7413e+00      0.829 (TRAH MIcro)
    4     dE    -1.660535e-01     3.925918e-02    -2.7820e+00      0.344 (TRAH MIcro)
    4     dE    -1.637166e-01     5.756895e-03    -2.7832e+00      0.342 (TRAH MIcro)
WARNING: 30 diagonal Hessian elements are negative!
    5       -491.422713666557     7.264785e-01                     0.995 (TRAH MAcro)   No
WARNING : negative HOMO - LUMO gap : -0.413441
    5     dE    -9.481037e-01     3.120819e+00    -1.1862e+00      0.995 (TRAH MIcro)
    5     dE    -1.111953e+00     6.513876e-01    -1.5579e+00      0.988 (TRAH MIcro)
    5     dE    -1.133771e+00     1.319600e-01    -1.5753e+00      0.995 (TRAH MIcro)
    5     dE    -1.134519e+00     3.082630e-02    -1.5769e+00      0.995 (TRAH MIcro)
    5     dE    -1.134699e+00     2.525141e-02    -1.5781e+00      0.995 (TRAH MIcro)
    5     dE    -1.134746e+00     1.053108e-02    -1.5786e+00      0.995 (TRAH MIcro)
    5     dE    -1.134753e+00     3.250339e-03    -1.5787e+00      0.995 (TRAH MIcro)
WARNING: 19 diagonal Hessian elements are negative!
    6       -491.658477461898     7.517759e-01                     0.697 (TRAH MAcro)   No
WARNING : negative HOMO - LUMO gap : -0.297662
    6     dE    -4.879095e-02     1.252887e+00    -9.5382e-02      0.152 (TRAH MIcro)
    6     dE    -3.655238e-01     5.762382e-01    -1.0014e+00      0.697 (TRAH MIcro)
    6     dE    -3.787433e-01     2.195501e-01    -1.0778e+00      0.697 (TRAH MIcro)
    6     dE    -3.805228e-01     5.285486e-02    -1.0910e+00      0.697 (TRAH MIcro)
    6     dE    -3.806670e-01     1.089613e-02    -1.0922e+00      0.697 (TRAH MIcro)
    6     dE    -3.806724e-01     3.379086e-03    -1.0923e+00      0.697 (TRAH MIcro)
 ---------------------------------
          TRAH Step control 
 ---------------------------------
  predicted energy change = -0.380672
  actual energy  change   = 0.046388
  energy change ratio     = -0.121859
  old trust radius        = 0.696730
  new trust radius        = 0.487711
  reject step?            =  1
    7       -491.658477461898     7.264785e-01                     0.488 (TRAH MAcro)  Yes
WARNING: 19 diagonal Hessian elements are negative!
    8       -491.658477461898     7.517759e-01                     0.488 (TRAH MAcro)   No
WARNING : negative HOMO - LUMO gap : -0.297662
    8     dE    -4.890254e-02     1.253392e+00    -9.5589e-02      0.152 (TRAH MIcro)
    8     dE    -2.320820e-01     3.288641e-01    -1.1749e+00      0.488 (TRAH MIcro)
    8     dE    -1.878800e-01     6.071301e-02    -1.3570e+00      0.403 (TRAH MIcro)
    8     dE    -1.899375e-01     1.869728e-02    -1.3584e+00      0.406 (TRAH MIcro)
    8     dE    -1.902099e-01     5.259626e-03    -1.3586e+00      0.406 (TRAH MIcro)
    9       -491.747733524915     2.813369e-01                     0.488 (TRAH MAcro)   No
    9     dE    -4.861470e-03     2.348952e-01    -9.7099e-03      0.037 (TRAH MIcro)
    9     dE    -6.081468e-03     7.986570e-02    -1.2123e-02      0.058 (TRAH MIcro)
    9     dE    -6.462695e-03     2.525605e-02    -1.2876e-02      0.062 (TRAH MIcro)
    9     dE    -6.504383e-03     7.104789e-03    -1.2959e-02      0.062 (TRAH MIcro)
   10       -491.754397560038     1.282967e-02                     0.585 (TRAH MAcro)   No
WARNING : small    HOMO - LUMO gap : 0.007590
   10     dE    -1.459634e-05     1.676106e-02    -2.9193e-05      0.002 (TRAH MIcro)
   10     dE    -1.944603e-05     9.631927e-03    -3.8892e-05      0.004 (TRAH MIcro)
   10     dE    -2.712722e-05     3.920938e-03    -5.4253e-05      0.006 (TRAH MIcro)
   10     dE    -2.816223e-05     1.619050e-03    -5.6323e-05      0.006 (TRAH MIcro)
   10     dE    -2.831022e-05     7.218182e-04    -5.6618e-05      0.006 (TRAH MIcro)
   11       -491.754425963700     7.336481e-04                           (NR   MAcro)
WARNING : small    HOMO - LUMO gap : 0.005940
   11     dE    -3.487241e-09     6.418199e-04                           (NR   MIcro)
   11     dE    -2.684469e-08     3.488357e-04                           (NR   MIcro)
   11     dE    -3.818402e-08     1.491625e-04                           (NR   MIcro)
   11     dE    -3.978969e-08     5.890938e-05                           (NR   MIcro)
   11     dE    -4.008788e-08     2.208529e-05                           (NR   MIcro)
   11     dE    -4.012219e-08     4.379307e-06                           (NR   MIcro)
   12       -491.754426002346     4.404222e-06                           (NR   MAcro)
WARNING : small    HOMO - LUMO gap : 0.005929
   12     dE    -4.194893e-13     3.064640e-06                           (NR   MIcro)
   12     dE    -1.025162e-12     1.555868e-06                           (NR   MIcro)
   12     dE    -1.214008e-12     5.484575e-07                           (NR   MIcro)
   13       -491.754426002366     5.480627e-07                           (NR   MAcro)
WARNING : small    HOMO - LUMO gap : 0.005929

               *****************************************************
               *                     SUCCESS                       *
               *           SCF CONVERGED AFTER  95 CYCLES          *
               *****************************************************

Old exchange energy                            =    -12.495002442 Eh
New exchange energy                            =    -12.494997850 Eh
Exchange energy change after final integration =      0.000004592 Eh
Total energy after final integration           =   -491.754421411 Eh
Final COS-X integration done in                =    27.723 sec

----------------
TOTAL SCF ENERGY
----------------

Total Energy       :         -491.75442141 Eh          -13381.31810 eV

Components:
Nuclear Repulsion  :          371.28817526 Eh           10103.26489 eV
Electronic Energy  :         -863.04259667 Eh          -23484.58299 eV
One Electron Energy:        -1391.45790799 Eh          -37863.49462 eV
Two Electron Energy:          528.41531132 Eh           14378.91163 eV
Max COSX asymmetry :            0.00000222 Eh               0.00006 eV

Virial components:
Potential Energy   :         -979.24561504 Eh          -26646.62787 eV
Kinetic Energy     :          487.49119363 Eh           13265.30977 eV
Virial Ratio       :            2.00874524


DFT components:
N(Alpha)           :       35.999998756467 electrons
N(Beta)            :       35.999998756467 electrons
N(Total)           :       71.999997512935 electrons
E(X)               :      -49.901886619947 Eh       
E(C)               :       -2.908353939682 Eh       
E(XC)              :      -52.810240559630 Eh       
DFET-embed. en.    :        0.000000000000 Eh       

---------------
SCF CONVERGENCE
---------------

  Last Energy change         ...   -2.0407e-11  Tolerance :   1.0000e-08
  Last Orbital Gradient      ...    5.4806e-07  Tolerance :   1.0000e-05
  Last Orbital Rotation      ...    1.1191e-06

             **** THE GBW FILE WAS UPDATED (opt4.gbw) ****
             **** DENSITY opt4.scfp WAS UPDATED ****
             **** ENERGY FILE WAS UPDATED (opt4.en.tmp) ****
             **** THE GBW FILE WAS UPDATED (opt4.gbw) ****
             **** DENSITY opt4.scfp WAS UPDATED ****
----------------
ORBITAL ENERGIES
----------------

  NO   OCC          E(Eh)            E(eV) 
   0   2.0000     -19.417229      -528.3697 
   1   2.0000     -19.416157      -528.3405 
   2   2.0000     -14.737793      -401.0357 
   3   2.0000     -14.503440      -394.6587 
   4   2.0000     -10.381886      -282.5055 
   5   2.0000     -10.322703      -280.8950 
   6   2.0000     -10.322480      -280.8889 
   7   2.0000     -10.322429      -280.8876 
   8   2.0000     -10.318064      -280.7688 
   9   2.0000     -10.317705      -280.7590 
  10   2.0000      -1.443673       -39.2843 
  11   2.0000      -1.313592       -35.7447 
  12   2.0000      -1.069722       -29.1086 
  13   2.0000      -0.963613       -26.2212 
  14   2.0000      -0.870997       -23.7010 
  15   2.0000      -0.851553       -23.1719 
  16   2.0000      -0.793947       -21.6044 
  17   2.0000      -0.743844       -20.2410 
  18   2.0000      -0.737415       -20.0661 
  19   2.0000      -0.735996       -20.0275 
  20   2.0000      -0.730565       -19.8797 
  21   2.0000      -0.717855       -19.5338 
  22   2.0000      -0.664319       -18.0770 
  23   2.0000      -0.659767       -17.9532 
  24   2.0000      -0.612202       -16.6589 
  25   2.0000      -0.567571       -15.4444 
  26   2.0000      -0.558622       -15.2009 
  27   2.0000      -0.550531       -14.9807 
  28   2.0000      -0.538044       -14.6409 
  29   2.0000      -0.531473       -14.4621 
  30   2.0000      -0.529039       -14.3959 
  31   2.0000      -0.490501       -13.3472 
  32   2.0000      -0.471766       -12.8374 
  33   2.0000      -0.450931       -12.2704 
  34   2.0000      -0.386072       -10.5055 
  35   2.0000      -0.325578        -8.8594 
  36   0.0000      -0.319649        -8.6981 
  37   0.0000      -0.224698        -6.1143 
  38   0.0000      -0.131943        -3.5903 
  39   0.0000      -0.121302        -3.3008 
  40   0.0000      -0.066531        -1.8104 
  41   0.0000      -0.037745        -1.0271 
  42   0.0000      -0.032463        -0.8834 
  43   0.0000       0.012179         0.3314 
  44   0.0000       0.014793         0.4025 
  45   0.0000       0.025742         0.7005 
  46   0.0000       0.039829         1.0838 
  47   0.0000       0.046070         1.2536 
  48   0.0000       0.054960         1.4955 
  49   0.0000       0.127212         3.4616 
  50   0.0000       0.156284         4.2527 
  51   0.0000       0.168535         4.5861 
  52   0.0000       0.172847         4.7034 
  53   0.0000       0.190174         5.1749 
  54   0.0000       0.245572         6.6824 
  55   0.0000       0.285368         7.7653 
  56   0.0000       0.291997         7.9456 
  57   0.0000       0.298861         8.1324 
  58   0.0000       0.314837         8.5672 
  59   0.0000       0.342915         9.3312 
  60   0.0000       0.345481         9.4010 
  61   0.0000       0.346647         9.4327 
  62   0.0000       0.371260        10.1025 
  63   0.0000       0.381401        10.3784 
  64   0.0000       0.382329        10.4037 
  65   0.0000       0.406409        11.0590 
  66   0.0000       0.409656        11.1473 
  67   0.0000       0.416247        11.3267 
  68   0.0000       0.420228        11.4350 
  69   0.0000       0.480415        13.0728 
  70   0.0000       0.487043        13.2531 
  71   0.0000       0.505636        13.7591 
  72   0.0000       0.513485        13.9726 
  73   0.0000       0.516644        14.0586 
  74   0.0000       0.530954        14.4480 
  75   0.0000       0.532926        14.5017 
  76   0.0000       0.555912        15.1271 
  77   0.0000       0.564721        15.3669 
  78   0.0000       0.566472        15.4145 
  79   0.0000       0.578307        15.7365 
  80   0.0000       0.593426        16.1480 
  81   0.0000       0.609819        16.5940 
  82   0.0000       0.627765        17.0824 
  83   0.0000       0.638897        17.3853 
  84   0.0000       0.651862        17.7381 
  85   0.0000       0.683880        18.6093 
  86   0.0000       0.699761        19.0415 
  87   0.0000       0.700131        19.0515 
  88   0.0000       0.741483        20.1768 
  89   0.0000       0.747541        20.3416 
  90   0.0000       0.765993        20.8437 
  91   0.0000       0.788408        21.4537 
  92   0.0000       0.830056        22.5870 
  93   0.0000       0.843537        22.9538 
  94   0.0000       0.849170        23.1071 
  95   0.0000       0.854607        23.2550 
  96   0.0000       0.932086        25.3633 
  97   0.0000       1.015979        27.6462 
  98   0.0000       1.053335        28.6627 
  99   0.0000       1.086280        29.5592 
 100   0.0000       1.122037        30.5322 
 101   0.0000       1.124929        30.6109 
 102   0.0000       1.127620        30.6841 
 103   0.0000       1.141067        31.0500 
 104   0.0000       1.143018        31.1031 
 105   0.0000       1.164877        31.6979 
 106   0.0000       1.181120        32.1399 
 107   0.0000       1.197535        32.5866 
 108   0.0000       1.208345        32.8807 
 109   0.0000       1.288698        35.0672 
 110   0.0000       1.373887        37.3854 
 111   0.0000       1.487740        40.4835 
 112   0.0000       1.544357        42.0241 
 113   0.0000       1.552228        42.2383 
 114   0.0000       1.579408        42.9779 
 115   0.0000       1.595175        43.4069 
 116   0.0000       1.599144        43.5149 
 117   0.0000       1.619143        44.0591 
 118   0.0000       1.619903        44.0798 
 119   0.0000       1.622571        44.1524 
 120   0.0000       1.627242        44.2795 
 121   0.0000       1.659919        45.1687 
 122   0.0000       1.670874        45.4668 
 123   0.0000       1.683241        45.8033 
 124   0.0000       1.718925        46.7743 
 125   0.0000       1.719720        46.7960 
 126   0.0000       1.722175        46.8628 
 127   0.0000       1.739328        47.3295 
 128   0.0000       1.791534        48.7501 
 129   0.0000       1.830538        49.8115 
 130   0.0000       1.853963        50.4489 
 131   0.0000       1.859862        50.6094 
 132   0.0000       1.911591        52.0170 
 133   0.0000       1.931625        52.5622 
 134   0.0000       1.983893        53.9845 
 135   0.0000       1.993959        54.2584 
 136   0.0000       2.006516        54.6001 
 137   0.0000       2.009617        54.6844 
 138   0.0000       2.051939        55.8361 
 139   0.0000       2.060816        56.0777 
 140   0.0000       2.103967        57.2519 
 141   0.0000       2.104257        57.2597 
 142   0.0000       2.184853        59.4529 
 143   0.0000       2.224856        60.5414 
 144   0.0000       2.228823        60.6494 
 145   0.0000       2.229275        60.6617 
 146   0.0000       2.275177        61.9107 
 147   0.0000       2.354662        64.0736 
 148   0.0000       2.374419        64.6112 
 149   0.0000       2.376265        64.6615 
 150   0.0000       2.412556        65.6490 
 151   0.0000       2.438020        66.3419 
 152   0.0000       2.446858        66.5824 
 153   0.0000       2.480838        67.5070 
 154   0.0000       2.528800        68.8122 
 155   0.0000       2.547932        69.3327 
 156   0.0000       2.583538        70.3016 
 157   0.0000       2.599508        70.7362 
 158   0.0000       2.604118        70.8617 
 159   0.0000       2.638186        71.7887 
 160   0.0000       2.702318        73.5338 
 161   0.0000       2.739970        74.5584 
 162   0.0000       2.747156        74.7539 
 163   0.0000       2.799283        76.1724 
 164   0.0000       2.955140        80.4134 
 165   0.0000       2.967119        80.7394 
 166   0.0000       3.046947        82.9116 
 167   0.0000       3.063135        83.3521 
 168   0.0000       3.074516        83.6618 
 169   0.0000       3.130168        85.1762 
 170   0.0000       3.295837        89.6843 
 171   0.0000       3.400741        92.5389 
 172   0.0000       3.428667        93.2988 
 173   0.0000       3.504488        95.3620 
 174   0.0000       3.692578       100.4802 

                    ********************************
                    * MULLIKEN POPULATION ANALYSIS *
                    ********************************

-----------------------
MULLIKEN ATOMIC CHARGES
-----------------------
   0 C :    0.048792
   1 C :    0.021056
   2 C :    0.026343
   3 C :    0.056028
   4 C :    0.025695
   5 C :    0.021040
   6 H :    0.007595
   7 H :    0.030705
   8 H :    0.033354
   9 H :    0.028294
  10 H :    0.006098
  11 N :    0.013410
  12 H :    0.153758
  13 H :    0.153298
  14 N :    0.378633
  15 O :   -0.002035
  16 O :   -0.002065
Sum of atomic charges:    1.0000000

--------------------------------
MULLIKEN REDUCED ORBITAL CHARGES
--------------------------------
  0 C s       :     3.010513  s :     3.010513
      pz      :     0.988586  p :     2.878443
      px      :     0.957149
      py      :     0.932708
      dz2     :     0.012597  d :     0.062253
      dxz     :     0.011166
      dyz     :     0.015756
      dx2y2   :     0.012381
      dxy     :     0.010352
  1 C s       :     3.212868  s :     3.212868
      pz      :     0.838154  p :     2.733955
      px      :     0.948634
      py      :     0.947167
      dz2     :     0.007559  d :     0.032120
      dxz     :     0.004966
      dyz     :     0.007384
      dx2y2   :     0.005398
      dxy     :     0.006813
  2 C s       :     3.173573  s :     3.173573
      pz      :     0.936947  p :     2.765008
      px      :     0.912577
      py      :     0.915484
      dz2     :     0.008838  d :     0.035075
      dxz     :     0.006815
      dyz     :     0.009126
      dx2y2   :     0.004459
      dxy     :     0.005837
  3 C s       :     3.176711  s :     3.176711
      pz      :     0.920453  p :     2.732963
      px      :     0.923564
      py      :     0.888947
      dz2     :     0.007886  d :     0.034298
      dxz     :     0.006652
      dyz     :     0.009134
      dx2y2   :     0.005523
      dxy     :     0.005103
  4 C s       :     3.172881  s :     3.172881
      pz      :     0.889767  p :     2.766333
      px      :     0.928707
      py      :     0.947859
      dz2     :     0.007622  d :     0.035091
      dxz     :     0.005951
      dyz     :     0.008065
      dx2y2   :     0.006825
      dxy     :     0.006627
  5 C s       :     3.212193  s :     3.212193
      pz      :     0.926365  p :     2.734644
      px      :     0.920680
      py      :     0.887599
      dz2     :     0.009031  d :     0.032122
      dxz     :     0.006058
      dyz     :     0.007160
      dx2y2   :     0.004028
      dxy     :     0.005845
  6 H s       :     0.969249  s :     0.969249
      pz      :     0.013365  p :     0.023155
      px      :     0.006237
      py      :     0.003554
  7 H s       :     0.946297  s :     0.946297
      pz      :     0.004706  p :     0.022997
      px      :     0.008704
      py      :     0.009587
  8 H s       :     0.943756  s :     0.943756
      pz      :     0.007337  p :     0.022890
      px      :     0.004342
      py      :     0.011211
  9 H s       :     0.948718  s :     0.948718
      pz      :     0.013588  p :     0.022988
      px      :     0.005805
      py      :     0.003595
 10 H s       :     0.970751  s :     0.970751
      pz      :     0.004892  p :     0.023151
      px      :     0.009017
      py      :     0.009242
 11 N s       :     3.295693  s :     3.295693
      pz      :     1.127105  p :     3.675160
      px      :     1.356471
      py      :     1.191583
      dz2     :     0.004030  d :     0.015737
      dxz     :     0.002528
      dyz     :     0.003612
      dx2y2   :     0.002110
      dxy     :     0.003456
 12 H s       :     0.801615  s :     0.801615
      pz      :     0.023562  p :     0.044627
      px      :     0.012527
      py      :     0.008538
 13 H s       :     0.802074  s :     0.802074
      pz      :     0.009733  p :     0.044629
      px      :     0.017160
      py      :     0.017736
 14 N s       :     3.341936  s :     3.341936
      pz      :     1.048625  p :     3.174110
      px      :     1.107278
      py      :     1.018208
      dz2     :     0.030291  d :     0.105320
      dxz     :     0.021829
      dyz     :     0.019598
      dx2y2   :     0.019139
      dxy     :     0.014464
 15 O s       :     3.857395  s :     3.857395
      pz      :     1.499875  p :     4.116002
      px      :     1.247416
      py      :     1.368711
      dz2     :     0.004668  d :     0.028638
      dxz     :     0.006921
      dyz     :     0.004372
      dx2y2   :     0.006200
      dxy     :     0.006476
 16 O s       :     3.854320  s :     3.854320
      pz      :     1.157576  p :     4.118853
      px      :     1.539864
      py      :     1.421414
      dz2     :     0.009260  d :     0.028891
      dxz     :     0.007314
      dyz     :     0.008203
      dx2y2   :     0.002074
      dxy     :     0.002040


                     *******************************
                     * LOEWDIN POPULATION ANALYSIS *
                     *******************************

----------------------
LOEWDIN ATOMIC CHARGES
----------------------
   0 C :    0.062849
   1 C :   -0.015632
   2 C :    0.011752
   3 C :    0.035683
   4 C :    0.010627
   5 C :   -0.016557
   6 H :    0.042233
   7 H :    0.049201
   8 H :    0.047354
   9 H :    0.048132
  10 H :    0.041592
  11 N :    0.102885
  12 H :    0.102796
  13 H :    0.102551
  14 N :    0.289761
  15 O :    0.042147
  16 O :    0.042626

-------------------------------
LOEWDIN REDUCED ORBITAL CHARGES
-------------------------------
  0 C s       :     2.841876  s :     2.841876
      pz      :     1.020928  p :     2.948269
      px      :     0.966355
      py      :     0.960985
      dz2     :     0.030175  d :     0.147006
      dxz     :     0.026470
      dyz     :     0.039006
      dx2y2   :     0.027316
      dxy     :     0.024039
  1 C s       :     2.865870  s :     2.865870
      pz      :     1.036714  p :     3.064619
      px      :     0.996822
      py      :     1.031083
      dz2     :     0.019892  d :     0.085143
      dxz     :     0.012463
      dyz     :     0.021067
      dx2y2   :     0.013334
      dxy     :     0.018388
  2 C s       :     2.863197  s :     2.863197
      pz      :     1.037205  p :     3.034635
      px      :     0.975058
      py      :     1.022372
      dz2     :     0.023581  d :     0.090416
      dxz     :     0.017216
      dyz     :     0.025124
      dx2y2   :     0.010244
      dxy     :     0.014252
  3 C s       :     2.873141  s :     2.873141
      pz      :     1.031528  p :     3.004154
      px      :     0.960952
      py      :     1.011675
      dz2     :     0.020608  d :     0.087022
      dxz     :     0.017509
      dyz     :     0.023412
      dx2y2   :     0.012302
      dxy     :     0.013191
  4 C s       :     2.863073  s :     2.863073
      pz      :     1.030547  p :     3.035829
      px      :     0.978018
      py      :     1.027264
      dz2     :     0.019522  d :     0.090471
      dxz     :     0.014447
      dyz     :     0.022271
      dx2y2   :     0.016445
      dxy     :     0.017786
  5 C s       :     2.865777  s :     2.865777
      pz      :     1.020462  p :     3.065605
      px      :     1.002820
      py      :     1.042323
      dz2     :     0.024451  d :     0.085174
      dxz     :     0.015678
      dyz     :     0.021241
      dx2y2   :     0.009382
      dxy     :     0.014421
  6 H s       :     0.888643  s :     0.888643
      pz      :     0.038473  p :     0.069124
      px      :     0.019055
      py      :     0.011596
  7 H s       :     0.883473  s :     0.883473
      pz      :     0.014549  p :     0.067326
      px      :     0.025339
      py      :     0.027437
  8 H s       :     0.884100  s :     0.884100
      pz      :     0.022148  p :     0.068546
      px      :     0.013694
      py      :     0.032704
  9 H s       :     0.884572  s :     0.884572
      pz      :     0.038705  p :     0.067297
      px      :     0.017436
      py      :     0.011156
 10 H s       :     0.889319  s :     0.889319
      pz      :     0.015547  p :     0.069089
      px      :     0.026567
      py      :     0.026975
 11 N s       :     3.023877  s :     3.023877
      pz      :     1.214339  p :     3.830658
      px      :     1.369106
      py      :     1.247213
      dz2     :     0.011622  d :     0.042580
      dxz     :     0.006402
      dyz     :     0.010710
      dx2y2   :     0.005100
      dxy     :     0.008747
 12 H s       :     0.776552  s :     0.776552
      pz      :     0.063693  p :     0.120653
      px      :     0.035913
      py      :     0.021047
 13 H s       :     0.776830  s :     0.776830
      pz      :     0.023777  p :     0.120619
      px      :     0.049291
      py      :     0.047551
 14 N s       :     3.110178  s :     3.110178
      pz      :     1.161962  p :     3.377481
      px      :     1.168569
      py      :     1.046949
      dz2     :     0.063926  d :     0.222581
      dxz     :     0.048281
      dyz     :     0.043239
      dx2y2   :     0.035187
      dxy     :     0.031947
 15 O s       :     3.611327  s :     3.611327
      pz      :     1.525433  p :     4.293392
      px      :     1.360251
      py      :     1.407707
      dz2     :     0.007691  d :     0.053134
      dxz     :     0.013801
      dyz     :     0.007920
      dx2y2   :     0.009432
      dxy     :     0.014289
 16 O s       :     3.608062  s :     3.608062
      pz      :     1.313523  p :     4.295683
      px      :     1.542001
      py      :     1.440158
      dz2     :     0.020046  d :     0.053628
      dxz     :     0.011918
      dyz     :     0.015560
      dx2y2   :     0.002806
      dxy     :     0.003298


                      *****************************
                      * MAYER POPULATION ANALYSIS *
                      *****************************

  NA   - Mulliken gross atomic population
  ZA   - Total nuclear charge
  QA   - Mulliken gross atomic charge
  VA   - Mayer's total valence
  BVA  - Mayer's bonded valence
  FA   - Mayer's free valence

  ATOM       NA         ZA         QA         VA         BVA        FA
  0 C      5.9512     6.0000     0.0488     4.0387     4.0387    -0.0000
  1 C      5.9789     6.0000     0.0211     3.8007     3.8007    -0.0000
  2 C      5.9737     6.0000     0.0263     3.8825     3.8825     0.0000
  3 C      5.9440     6.0000     0.0560     3.8175     3.8175    -0.0000
  4 C      5.9743     6.0000     0.0257     3.8824     3.8824    -0.0000
  5 C      5.9790     6.0000     0.0210     3.7998     3.7998    -0.0000
  6 H      0.9924     1.0000     0.0076     0.9910     0.9910    -0.0000
  7 H      0.9693     1.0000     0.0307     0.9818     0.9818     0.0000
  8 H      0.9666     1.0000     0.0334     0.9814     0.9814    -0.0000
  9 H      0.9717     1.0000     0.0283     0.9817     0.9817    -0.0000
 10 H      0.9939     1.0000     0.0061     0.9909     0.9909    -0.0000
 11 N      6.9866     7.0000     0.0134     3.4471     3.4471    -0.0000
 12 H      0.8462     1.0000     0.1538     0.9892     0.9892    -0.0000
 13 H      0.8467     1.0000     0.1533     0.9893     0.9893    -0.0000
 14 N      6.6214     7.0000     0.3786     3.8903     3.8903     0.0000
 15 O      8.0020     8.0000    -0.0020     2.3295     2.3295    -0.0000
 16 O      8.0021     8.0000    -0.0021     2.3307     2.3307     0.0000

  Mayer bond orders larger than 0.100000
B(  0-C ,  1-C ) :   1.2046 B(  0-C ,  5-C ) :   1.2047 B(  0-C , 11-N ) :   1.3691 
B(  1-C ,  2-C ) :   1.4694 B(  1-C ,  6-H ) :   0.9881 B(  2-C ,  3-C ) :   1.3052 
B(  2-C ,  7-H ) :   0.9815 B(  3-C ,  4-C ) :   1.3060 B(  3-C ,  8-H ) :   0.9872 
B(  3-C , 14-N ) :   0.1047 B(  4-C ,  5-C ) :   1.4685 B(  4-C ,  9-H ) :   0.9815 
B(  5-C , 10-H ) :   0.9880 B( 11-N , 12-H ) :   0.9345 B( 11-N , 13-H ) :   0.9346 
B( 11-N , 14-N ) :   0.1107 B( 14-N , 15-O ) :   1.7427 B( 14-N , 16-O ) :   1.7454 
B( 15-O , 16-O ) :   0.3573 

-------
TIMINGS
-------

Total SCF time: 0 days 0 hours 12 min 55 sec 

Total time                  ....     775.703 sec
Sum of individual times     ....     765.986 sec  ( 98.7%)

Fock matrix formation       ....     757.353 sec  ( 97.6%)
  Split-RI-J                ....      91.566 sec  ( 12.1% of F)
  Chain of spheres X        ....     554.919 sec  ( 73.3% of F)
  XC integration            ....     107.096 sec  ( 14.1% of F)
    Basis function eval.    ....      34.345 sec  ( 32.1% of XC)
    Density eval.           ....      27.397 sec  ( 25.6% of XC)
    XC-Functional eval.     ....       7.042 sec  (  6.6% of XC)
    XC-Potential eval.      ....      25.289 sec  ( 23.6% of XC)
Diagonalization             ....       0.253 sec  (  0.0%)
Density matrix formation    ....       0.065 sec  (  0.0%)
Population analysis         ....       0.157 sec  (  0.0%)
Initial guess               ....       1.237 sec  (  0.2%)
Orbital Transformation      ....       0.359 sec  (  0.0%)
Orbital Orthonormalization  ....       0.000 sec  (  0.0%)
DIIS solution               ....       0.773 sec  (  0.1%)
SOSCF solution              ....       0.000 sec  (  0.0%)
Grid generation             ....       5.788 sec  (  0.7%)

Maximum memory used throughout the entire SCF-calculation: 68.5 MB


-------------------------------------------------------------------------------
                          DFT DISPERSION CORRECTION                            
                                                                               
                                 DFTD4 V2.5                                    
-------------------------------------------------------------------------------
The B3LYP functional is recognized
Active option DFTDOPT                   ...         5   

Starting D4
-------------------------   ----------------
Dispersion correction           -0.020413625
-------------------------   ----------------


-------------------------   --------------------
FINAL SINGLE POINT ENERGY      -491.774835035924
-------------------------   --------------------

------------------------------------------------------------------------------
                         ORCA SCF GRADIENT CALCULATION
------------------------------------------------------------------------------

 ... reading COSX grid (gridx3)
Gradient of the Kohn-Sham DFT energy:
Kohn-Sham wavefunction type      ... RKS
Hartree-Fock exchange scaling    ...    0.200
Number of operators              ...    1
Number of atoms                  ...   17
Basis set dimensions             ...  175
Integral neglect threshold       ... 2.5e-11
Integral primitive cutoff        ... 2.5e-12
SHARK Integral package           ... ON

Nuc. rep. gradient       (SHARK) ... done (  0.0 sec)
HCore & Overlap gradient (SHARK) ... done (  0.7 sec)
RI-J gradient            (SHARK) ... done (  5.0 sec)
COSX-gradient                    ... done ( 32.4 sec)
Exchange-correlation gradient    ... done
Dispersion correction            ... Starting D4


------------------- 
Dispersion Gradient 
------------------- 
   1  :   -0.000069947    0.000247947    0.000179413
   2  :    0.000210992   -0.000078224    0.000306934
   3  :    0.000305621   -0.000413512    0.000064900
   4  :    0.000102288   -0.000362454   -0.000262356
   5  :   -0.000145852   -0.000151264   -0.000473501
   6  :   -0.000240388    0.000183745   -0.000230880
   7  :    0.000101815   -0.000017633    0.000173408
   8  :    0.000112096   -0.000128844    0.000052527
   9  :    0.000038355   -0.000135784   -0.000098544
  10  :   -0.000069007   -0.000023754   -0.000163976
  11  :   -0.000129671    0.000116702   -0.000102378
  12  :   -0.000122752    0.000437995    0.000316244
  13  :    0.000034496    0.000115582    0.000214604
  14  :   -0.000127865    0.000209251    0.000021697
  15  :   -0.000004217   -0.000000942    0.000003348
  16  :   -0.000015558   -0.000015179   -0.000025082
  17  :    0.000019592    0.000016367    0.000023642

  |G| =    0.001103614

done

------------------
CARTESIAN GRADIENT
------------------

   1   C   :   -0.000028118   -0.000073629   -0.000176473
   2   C   :    0.000041576    0.000044247    0.000073434
   3   C   :   -0.000013206   -0.000090299   -0.000154552
   4   C   :    0.000022013   -0.000019351    0.000070339
   5   C   :   -0.000043421   -0.000100314   -0.000278248
   6   C   :   -0.000018950    0.000097188    0.000243324
   7   H   :   -0.000009664    0.000005721    0.000005329
   8   H   :    0.000025194   -0.000040467    0.000001005
   9   H   :   -0.000000444   -0.000011241   -0.000037392
  10   H   :    0.000142928   -0.000001965    0.000071701
  11   H   :   -0.000035017    0.000013623   -0.000043166
  12   N   :    0.000034187    0.000063271    0.000139353
  13   H   :   -0.000029685    0.000016648   -0.000029761
  14   H   :   -0.000067784    0.000015693   -0.000023875
  15   N   :    0.005376322    0.003202998    0.002367888
  16   O   :   -0.006699099   -0.004811202   -0.005219171
  17   O   :    0.001360384    0.001639449    0.002885635

Difference to translation invariance:
[...]
     31      -0.194976  -0.031818  -0.023780   0.231650  -0.208531  -0.012361
     32      -0.328760  -0.027804   0.211019   0.290010  -0.268594  -0.057941
     33       0.026674   0.034048   0.038887   0.012592   0.013008   0.029307
     34      -0.093784  -0.017182  -0.021753  -0.044570  -0.007288  -0.103748
     35      -0.066175   0.042677   0.046152  -0.031665   0.015401  -0.074038
     36       0.143605  -0.129260  -0.084160   0.173174  -0.043300  -0.370593
     37      -0.303304   0.258287   0.185877  -0.322296   0.086489   0.571276
     38      -0.108042   0.075658   0.071271  -0.075570   0.025154   0.016583
     39       0.005993  -0.007485   0.007080  -0.022107  -0.002177   0.124631
     40      -0.230461  -0.170497  -0.142319  -0.213010  -0.058954   0.292552
     41      -0.275804  -0.223549  -0.161959  -0.306848  -0.076429   0.601879
     42      -0.074682   0.001316   0.000011  -0.006174  -0.000047  -0.000619
     43      -0.006436   0.000112   0.000001  -0.000532  -0.000006  -0.000047
     44       0.061578  -0.001087  -0.000009   0.005080   0.000029   0.000531
     45       0.119030  -0.002028  -0.000012   0.007487   0.000047   0.000671
     46       0.062261  -0.001055  -0.000009   0.003528   0.000022   0.000296
     47       0.085557  -0.001421  -0.000008   0.004007   0.000022   0.000294
     48      -0.053651   0.000878   0.000002  -0.002081  -0.000008  -0.000129
     49      -0.056619   0.000952   0.000005  -0.003062  -0.000016  -0.000254
     50      -0.139436   0.002367   0.000012  -0.008465  -0.000047  -0.000757
                 42         43         44         45         46         47    
      0       0.055583  -0.000005  -0.000289   0.002135  -0.000356   0.001156
      1      -0.197893   0.000043   0.001764  -0.001412   0.001436  -0.000671
      2      -0.140850   0.000014   0.001658   0.002266   0.001120   0.001343
      3      -0.088073   0.000027   0.019323  -0.026686   0.010887  -0.007965
      4       0.213756  -0.000060   0.004113  -0.006636   0.003914  -0.004762
      5       0.099233  -0.000021   0.041443  -0.058423   0.025327  -0.020886
      6       0.016386   0.000002  -0.015094   0.014769   0.022364  -0.037884
      7      -0.154764   0.000039   0.015576  -0.014732  -0.026391   0.042392
      8      -0.160907   0.000059  -0.009096   0.009530   0.009376  -0.018749
      9      -0.020385   0.000005   0.003337  -0.000691  -0.012192   0.003692
     10       0.072241  -0.000032  -0.012061   0.001640   0.043813  -0.004751
     11       0.051132  -0.000021  -0.008672   0.000733   0.031356   0.001061
     12       0.080569  -0.000047   0.013173   0.007704  -0.014977  -0.023350
     13      -0.190670   0.000063   0.001497   0.000262  -0.007000  -0.007222
     14      -0.084726  -0.000002   0.026636   0.014817  -0.036847  -0.052870
     15      -0.021328  -0.000001  -0.038551  -0.031989  -0.019138  -0.013626
     16       0.175893  -0.000042   0.041508   0.034928   0.021759   0.016622
     17       0.178024  -0.000046  -0.021037  -0.016853  -0.009013  -0.005014
     18       0.186735   0.000003  -0.217573   0.305360  -0.126002   0.099434
     19      -0.250373   0.000041  -0.052899   0.075298  -0.032016   0.026812
     20       0.040756  -0.000018  -0.474877   0.667784  -0.276725   0.220304
     21       0.076849   0.000042   0.179079  -0.175673  -0.258120   0.426930
     22       0.071862  -0.000020  -0.194787   0.190515   0.283452  -0.466725
     23       0.233602  -0.000138   0.095564  -0.094461  -0.134414   0.224956
     24      -0.023204   0.000029  -0.040400   0.005223   0.143135  -0.012948
     25       0.083299   0.000012   0.144288  -0.017769  -0.510933   0.037747
     26       0.059719  -0.000083   0.102792  -0.012183  -0.363841   0.022397
     27      -0.153003   0.000120  -0.147377  -0.083624   0.187064   0.268370
     28       0.201117  -0.000034  -0.035946  -0.019661   0.050257   0.068931
     29      -0.038779  -0.000085  -0.321704  -0.181631   0.414078   0.590125
     30      -0.089549   0.000079   0.440457   0.366179   0.211940   0.149094
     31      -0.094612   0.000025  -0.478610  -0.398409  -0.231279  -0.163658
     32      -0.286337  -0.000084   0.234831   0.194589   0.111782   0.077441
     33      -0.029614   0.000001  -0.000004  -0.000289   0.000043  -0.000137
     34       0.104830  -0.000017  -0.000085   0.000175  -0.000179   0.000083
     35       0.074846  -0.000013  -0.000118  -0.000326  -0.000139  -0.000155
     36       0.235660   0.000096   0.002433  -0.000354   0.000494  -0.000014
     37      -0.341345  -0.000020  -0.003362   0.001849  -0.002016   0.000376
     38       0.015832  -0.000055   0.000411   0.001663  -0.001591   0.000457
     39      -0.093055   0.000085  -0.000869   0.001060   0.000710   0.000193
     40      -0.156206  -0.000011  -0.001856  -0.001661  -0.002178  -0.000408
     41      -0.372739  -0.000122  -0.003941  -0.000108  -0.001386  -0.000155
     42       0.015809   0.472541  -0.000054   0.000007  -0.000130  -0.000002
     43       0.001390   0.324520  -0.000005   0.000001  -0.000011   0.000000
     44      -0.012913   0.612800   0.000044  -0.000006   0.000107   0.000002
     45      -0.016460  -0.295939   0.000040  -0.000005   0.000096   0.000001
     46      -0.007176  -0.150468   0.000013  -0.000001   0.000032   0.000000
     47      -0.006764  -0.197404   0.000002  -0.000000   0.000005  -0.000000
     48       0.002618  -0.117783   0.000007  -0.000001   0.000017   0.000000
     49       0.005954  -0.133641  -0.000009   0.000001  -0.000023  -0.000000
     50       0.018078  -0.339037  -0.000041   0.000005  -0.000099  -0.000002
                 48         49         50    
      0      -0.000221  -0.000547  -0.000409
      1       0.000716   0.002005   0.000224
      2       0.000477   0.001422  -0.000492
      3       0.004149  -0.000495   0.000361
      4       0.003235   0.000800  -0.000308
      5       0.011813   0.000067   0.000301
      6       0.027824   0.000177  -0.000035
      7      -0.029317  -0.000232   0.000000
      8       0.016028   0.000047  -0.000066
      9       0.014805  -0.000046   0.000050
     10      -0.053012   0.000166  -0.000029
     11      -0.037839   0.000121   0.000058
     12      -0.017548  -0.000092  -0.000048
     13      -0.002762  -0.000079   0.000048
     14      -0.036425  -0.000269  -0.000031
     15      -0.007430   0.000141   0.000292
     16       0.009433   0.000445  -0.000062
     17      -0.002279   0.000821   0.000467
     18      -0.052874   0.000489  -0.000224
     19      -0.014842  -0.000714  -0.001055
     20      -0.117875   0.000016  -0.001734
     21      -0.300195  -0.000621   0.000078
     22       0.326226   0.000508  -0.000008
     23      -0.160606  -0.000535   0.000140
     24      -0.164331   0.000259  -0.000043
     25       0.586432  -0.000918   0.000029
     26       0.417497  -0.000647  -0.000043
     27       0.181857   0.000520   0.000104
     28       0.043902  -0.000129  -0.000090
     29       0.396417   0.000825   0.000082
     30       0.078017  -0.000158  -0.001019
     31      -0.085965  -0.000366   0.001759
     32       0.040113  -0.000761   0.000274
     33       0.000007   0.012324  -0.052721
     34      -0.000015  -0.043412   0.029744
     35      -0.000007  -0.031442  -0.062177
     36       0.000323   0.287776   0.281026
     37      -0.000661   0.077565   0.083961
     38      -0.000208   0.642413   0.637950
     39      -0.000019  -0.449240   0.450152
     40      -0.000455   0.490291  -0.496406
     41      -0.000598  -0.230721   0.224497
     42      -0.000090  -0.000767   0.000006
     43      -0.000008  -0.000067   0.000000
     44       0.000074   0.000629  -0.000006
     45       0.000066   0.000559  -0.000005
     46       0.000022   0.000184  -0.000001
     47       0.000003   0.000016  -0.000000
     48       0.000012   0.000112  -0.000001
     49      -0.000015  -0.000125   0.000001
     50      -0.000068  -0.000567   0.000005


-----------
IR SPECTRUM
-----------

 Mode   freq       eps      Int      T**2         TX        TY        TZ
       cm**-1   L/(mol*cm) km/mol    a.u.
----------------------------------------------------------------------------
  8:      2.27   0.000000    0.00  0.000000  ( 0.000000  0.000000  0.000000)
  9:      4.64   0.000000    0.00  0.000000  ( 0.000000  0.000000  0.000000)
 10:      5.44   0.000168    0.85  0.009643  ( 0.037971  0.080066 -0.042311)
 11:     19.57   0.000262    1.33  0.004185  (-0.026758  0.056847 -0.015423)
 12:    202.26   0.001349    6.82  0.002081  ( 0.034982  0.023510 -0.017455)
 13:    387.92   0.000544    2.75  0.000438  ( 0.013226 -0.007470  0.014392)
 14:    394.96   0.000001    0.00  0.000001  ( 0.000575  0.000213 -0.000496)
 15:    453.14   0.033330  168.44  0.022953  (-0.117296 -0.081193  0.051016)
 16:    505.23   0.001169    5.91  0.000722  ( 0.021104  0.015641 -0.005635)
 17:    513.61   0.000013    0.07  0.000008  ( 0.001955  0.000770 -0.001851)
 18:    531.97   0.132809  671.16  0.077908  ( 0.024049 -0.036440 -0.275684)
 19:    611.80   0.000014    0.07  0.000007  ( 0.002178 -0.001485 -0.000043)
 20:    633.78   2.025793  10237.53  0.997471  ( 0.077556 -0.149245 -0.984470)
 21:    672.04   0.007414   37.47  0.003443  (-0.044292 -0.028759  0.025573)
 22:    800.07   0.006840   34.57  0.002668  (-0.039605 -0.026423  0.020033)
 23:    819.63   0.000001    0.00  0.000000  (-0.000437 -0.000193  0.000153)
 24:    836.28   0.004930   24.92  0.001840  (-0.003372  0.000174  0.042760)
 25:    928.09   0.001001    5.06  0.000337  (-0.014093 -0.009341  0.007122)
 26:    995.74   0.020879  105.51  0.006543  (-0.009626  0.017658  0.078351)
 27:   1005.00   0.000000    0.00  0.000000  ( 0.000101 -0.000046 -0.000181)
 28:   1022.71   0.000009    0.04  0.000003  (-0.001003  0.000557 -0.001133)
 29:   1027.61   0.000006    0.03  0.000002  ( 0.001080  0.000692 -0.000538)
 30:   1030.50   0.003360   16.98  0.001018  ( 0.002217 -0.000182 -0.031823)
 31:   1122.45   0.001730    8.74  0.000481  ( 0.014046 -0.008093  0.014775)
 32:   1173.34   0.000009    0.05  0.000002  (-0.001247  0.000794 -0.000463)
 33:   1192.25   0.069314  350.29  0.018143  (-0.015075  0.026618  0.131175)
 34:   1350.54   0.000006    0.03  0.000001  ( 0.000991 -0.000645  0.000255)
 35:   1368.45   2.283570  11540.23  0.520748  ( 0.071958 -0.108255 -0.709824)
 36:   1385.79   0.602028  3042.40  0.135569  ( 0.035437 -0.050419 -0.363003)
 37:   1397.37   0.000038    0.19  0.000009  (-0.001066  0.000901  0.002578)
 38:   1500.68   0.001510    7.63  0.000314  ( 0.010795 -0.006216  0.012605)
 39:   1523.84   0.034501  174.36  0.007065  (-0.015132  0.044981  0.069377)
 40:   1566.28   0.000293    1.48  0.000058  (-0.004748  0.002738 -0.005314)
 41:   1630.84   0.029463  148.90  0.005638  (-0.016146  0.054900  0.048613)
 42:   1666.54   0.227941  1151.92  0.042683  ( 0.027128 -0.058775 -0.196194)
 43:   2034.55   0.066433  335.73  0.010190  ( 0.057798  0.039391  0.072783)
 44:   3189.24   0.001539    7.78  0.000151  (-0.002161  0.006145  0.010401)
 45:   3190.39   0.000024    0.12  0.000002  ( 0.000056 -0.000558 -0.001430)
 46:   3202.51   0.003328   16.82  0.000324  (-0.002333  0.004203  0.017356)
 47:   3208.54   0.000013    0.07  0.000001  (-0.000788  0.000303 -0.000774)
 48:   3217.64   0.001236    6.25  0.000120  (-0.001178  0.001284  0.010811)
 49:   3567.80   0.311138  1572.36  0.027214  (-0.024321  0.061042  0.151316)
 50:   3689.71   0.014231   71.92  0.001204  ( 0.021559 -0.012301  0.024239)

* The epsilon (eps) is given for a Dirac delta lineshape.
** The dipole moment derivative (T) already includes vibrational overlap.

The first frequency considered to be a vibration is 8
The total number of vibrations considered is 43


--------------------------
THERMOCHEMISTRY AT 298.15K
--------------------------

Temperature         ... 298.15 K
Pressure            ... 1.00 atm
Total Mass          ... 139.13 AMU

Throughout the following assumptions are being made:
  (1) The electronic state is orbitally nondegenerate
  (2) There are no thermally accessible electronically excited states
  (3) Hindered rotations indicated by low frequency modes are not
      treated as such but are treated as vibrations and this may
      cause some error
  (4) All equations used are the standard statistical mechanics
      equations for an ideal gas
  (5) All vibrations are strictly harmonic

freq.       2.27  E(vib)   ...       0.59 
freq.       4.64  E(vib)   ...       0.59 
freq.       5.44  E(vib)   ...       0.58 
freq.      19.57  E(vib)   ...       0.56 
freq.     202.26  E(vib)   ...       0.35 
freq.     387.92  E(vib)   ...       0.20 
freq.     394.96  E(vib)   ...       0.20 
freq.     453.14  E(vib)   ...       0.16 
freq.     505.23  E(vib)   ...       0.14 
freq.     513.61  E(vib)   ...       0.13 
freq.     531.97  E(vib)   ...       0.13 
freq.     611.80  E(vib)   ...       0.10 
freq.     633.78  E(vib)   ...       0.09 
freq.     672.04  E(vib)   ...       0.08 
freq.     800.07  E(vib)   ...       0.05 
freq.     819.63  E(vib)   ...       0.05 
freq.     836.28  E(vib)   ...       0.04 
freq.     928.09  E(vib)   ...       0.03 
freq.     995.74  E(vib)   ...       0.02 
freq.    1005.00  E(vib)   ...       0.02 
freq.    1022.71  E(vib)   ...       0.02 
freq.    1027.61  E(vib)   ...       0.02 
freq.    1030.50  E(vib)   ...       0.02 
freq.    1122.45  E(vib)   ...       0.01 
freq.    1173.34  E(vib)   ...       0.01 
freq.    1192.25  E(vib)   ...       0.01 
freq.    1350.54  E(vib)   ...       0.01 
freq.    1368.45  E(vib)   ...       0.01 
freq.    1385.79  E(vib)   ...       0.00 
freq.    1397.37  E(vib)   ...       0.00 
freq.    1500.68  E(vib)   ...       0.00 
freq.    1523.84  E(vib)   ...       0.00 
freq.    1566.28  E(vib)   ...       0.00 
freq.    1630.84  E(vib)   ...       0.00 
freq.    1666.54  E(vib)   ...       0.00 
freq.    2034.55  E(vib)   ...       0.00 
freq.    3189.24  E(vib)   ...       0.00 
freq.    3190.39  E(vib)   ...       0.00 
freq.    3202.51  E(vib)   ...       0.00 
freq.    3208.54  E(vib)   ...       0.00 
freq.    3217.64  E(vib)   ...       0.00 
freq.    3567.80  E(vib)   ...       0.00 
freq.    3689.71  E(vib)   ...       0.00 

------------
INNER ENERGY
------------

The inner energy is: U= E(el) + E(ZPE) + E(vib) + E(rot) + E(trans)
    E(el)   - is the total energy from the electronic structure calculation
              = E(kin-el) + E(nuc-el) + E(el-el) + E(nuc-nuc)
    E(ZPE)  - the the zero temperature vibrational energy from the frequency calculation
    E(vib)  - the the finite temperature correction to E(ZPE) due to population
              of excited vibrational states
    E(rot)  - is the rotational thermal energy
    E(trans)- is the translational thermal energy

Summary of contributions to the inner energy U:
Electronic energy                ...   -491.77496012 Eh
Zero point energy                ...      0.12662744 Eh      79.46 kcal/mol
Thermal vibrational correction   ...      0.00676755 Eh       4.25 kcal/mol
Thermal rotational correction    ...      0.00141627 Eh       0.89 kcal/mol
Thermal translational correction ...      0.00141627 Eh       0.89 kcal/mol
-----------------------------------------------------------------------
Total thermal energy                   -491.63873259 Eh


Summary of corrections to the electronic energy:
(perhaps to be used in another calculation)
Total thermal correction                  0.00960009 Eh       6.02 kcal/mol
Non-thermal (ZPE) correction              0.12662744 Eh      79.46 kcal/mol
-----------------------------------------------------------------------
Total correction                          0.13622753 Eh      85.48 kcal/mol


--------
ENTHALPY
--------

The enthalpy is H = U + kB*T
                kB is Boltzmann's constant
Total free energy                 ...   -491.63873259 Eh 
Thermal Enthalpy correction       ...      0.00094421 Eh       0.59 kcal/mol
-----------------------------------------------------------------------
Total Enthalpy                    ...   -491.63778838 Eh


Note: Only C1 symmetry has been detected, increase convergence thresholds 
      if your molecule has a higher symmetry. Symmetry factor of 1.0 is   
      used for the rotational entropy correction. 
 

Note: Rotational entropy computed according to Herzberg 
Infrared and Raman Spectra, Chapter V,1, Van Nostrand Reinhold, 1945 
Point Group:  C1, Symmetry Number:   1  
Rotational constants in cm-1:     0.094567     0.001684     0.001667 

Vibrational entropy computed according to the QRRHO of S. Grimme
Chem.Eur.J. 2012 18 9955


-------
ENTROPY
-------

The entropy contributions are T*S = T*(S(el)+S(vib)+S(rot)+S(trans))
     S(el)   - electronic entropy
     S(vib)  - vibrational entropy
     S(rot)  - rotational entropy
     S(trans)- translational entropy
The entropies will be listed as multiplied by the temperature to get
units of energy

Electronic entropy                ...      0.00000000 Eh      0.00 kcal/mol
Vibrational entropy               ...      0.01524312 Eh      9.57 kcal/mol
Rotational entropy                ...      0.01665901 Eh     10.45 kcal/mol
Translational entropy             ...      0.01933899 Eh     12.14 kcal/mol
-----------------------------------------------------------------------
Final entropy term                ...      0.05124112 Eh     32.15 kcal/mol

In case the symmetry of your molecule has not been determined correctly
or in case you have a reason to use a different symmetry number we print 
out the resulting rotational entropy values for sn=1,12 :
 --------------------------------------------------------
|  sn= 1 | S(rot)=       0.01665901 Eh     10.45 kcal/mol|
|  sn= 2 | S(rot)=       0.01600455 Eh     10.04 kcal/mol|
|  sn= 3 | S(rot)=       0.01562172 Eh      9.80 kcal/mol|
|  sn= 4 | S(rot)=       0.01535010 Eh      9.63 kcal/mol|
|  sn= 5 | S(rot)=       0.01513941 Eh      9.50 kcal/mol|
|  sn= 6 | S(rot)=       0.01496727 Eh      9.39 kcal/mol|
|  sn= 7 | S(rot)=       0.01482172 Eh      9.30 kcal/mol|
|  sn= 8 | S(rot)=       0.01469564 Eh      9.22 kcal/mol|
|  sn= 9 | S(rot)=       0.01458443 Eh      9.15 kcal/mol|
|  sn=10 | S(rot)=       0.01448495 Eh      9.09 kcal/mol|
|  sn=11 | S(rot)=       0.01439496 Eh      9.03 kcal/mol|
|  sn=12 | S(rot)=       0.01431281 Eh      8.98 kcal/mol|
 --------------------------------------------------------


-------------------
GIBBS FREE ENERGY
-------------------

The Gibbs free energy is G = H - T*S

Total enthalpy                    ...   -491.63778838 Eh 
Total entropy correction          ...     -0.05124112 Eh    -32.15 kcal/mol
-----------------------------------------------------------------------
Final Gibbs free energy         ...   -491.68902950 Eh

For completeness - the Gibbs free energy minus the electronic energy
G-E(el)                           ...      0.08593062 Eh     53.92 kcal/mol


Timings for individual modules:

Sum of individual times         ...     3384.426 sec (=  56.407 min)
GTO integral calculation        ...       13.213 sec (=   0.220 min)   0.4 %
SCF iterations                  ...     2131.941 sec (=  35.532 min)  63.0 %
SCF Gradient evaluation         ...      365.643 sec (=   6.094 min)  10.8 %
Geometry relaxation             ...        2.271 sec (=   0.038 min)   0.1 %
Analytical frequency calculation...      871.358 sec (=  14.523 min)  25.7 %
                             ****ORCA TERMINATED NORMALLY****
TOTAL RUN TIME: 0 days 0 hours 56 minutes 32 seconds 123 msec
