
                                 *****************
                                 * O   R   C   A *
                                 *****************

                                            #,                                       
                                            ###                                      
                                            ####                                     
                                            #####                                    
                                            ######                                   
                                           ########,                                 
                                     ,,################,,,,,                         
                               ,,#################################,,                 
                          ,,##########################################,,             
                       ,#########################################, ''#####,          
                    ,#############################################,,   '####,        
                  ,##################################################,,,,####,       
                ,###########''''           ''''###############################       
              ,#####''   ,,,,##########,,,,          '''####'''          '####       
            ,##' ,,,,###########################,,,                        '##       
           ' ,,###''''                  '''############,,,                           
         ,,##''                                '''############,,,,        ,,,,,,###''
      ,#''                                            '''#######################'''  
     '                                                          ''''####''''         
             ,#######,   #######,   ,#######,      ##                                
            ,#'     '#,  ##    ##  ,#'     '#,    #''#        ######   ,####,        
            ##       ##  ##   ,#'  ##            #'  '#       #        #'  '#        
            ##       ##  #######   ##           ,######,      #####,   #    #        
            '#,     ,#'  ##    ##  '#,     ,#' ,#      #,         ##   #,  ,#        
             '#######'   ##     ##  '#######'  #'      '#     #####' # '####'        



                  #######################################################
                  #                        -***-                        #
                  #          Department of theory and spectroscopy      #
                  #    Directorship and core code : Frank Neese         #
                  #        Max Planck Institute fuer Kohlenforschung    #
                  #                Kaiser Wilhelm Platz 1               #
                  #                 D-45470 Muelheim/Ruhr               #
                  #                      Germany                        #
                  #                                                     #
                  #                  All rights reserved                #
                  #                        -***-                        #
                  #######################################################



                         Program Version 5.0.4 -  RELEASE  -

 With contributions from (in alphabetic order):
   Daniel Aravena         : Magnetic Suceptibility
   Michael Atanasov       : Ab Initio Ligand Field Theory (pilot matlab implementation)
   Alexander A. Auer      : GIAO ZORA, VPT2 properties, NMR spectrum
   Ute Becker             : Parallelization
   Giovanni Bistoni       : ED, misc. LED, open-shell LED, HFLD
   Martin Brehm           : Molecular dynamics
   Dmytro Bykov           : SCF Hessian
   Vijay G. Chilkuri      : MRCI spin determinant printing, contributions to CSF-ICE
   Dipayan Datta          : RHF DLPNO-CCSD density
   Achintya Kumar Dutta   : EOM-CC, STEOM-CC
   Dmitry Ganyushin       : Spin-Orbit,Spin-Spin,Magnetic field MRCI
   Miquel Garcia          : C-PCM and meta-GGA Hessian, CC/C-PCM, Gaussian charge scheme
   Yang Guo               : DLPNO-NEVPT2, F12-NEVPT2, CIM, IAO-localization
   Andreas Hansen         : Spin unrestricted coupled pair/coupled cluster methods
   Benjamin Helmich-Paris : MC-RPA, TRAH-SCF, COSX integrals
   Lee Huntington         : MR-EOM, pCC
   Robert Izsak           : Overlap fitted RIJCOSX, COSX-SCS-MP3, EOM
   Marcus Kettner         : VPT2
   Christian Kollmar      : KDIIS, OOCD, Brueckner-CCSD(T), CCSD density, CASPT2, CASPT2-K
   Simone Kossmann        : Meta GGA functionals, TD-DFT gradient, OOMP2, MP2 Hessian
   Martin Krupicka        : Initial AUTO-CI
   Lucas Lang             : DCDCAS
   Marvin Lechner         : AUTO-CI (C++ implementation), FIC-MRCC
   Dagmar Lenk            : GEPOL surface, SMD
   Dimitrios Liakos       : Extrapolation schemes; Compound Job, initial MDCI parallelization
   Dimitrios Manganas     : Further ROCIS development; embedding schemes
   Dimitrios Pantazis     : SARC Basis sets
   Anastasios Papadopoulos: AUTO-CI, single reference methods and gradients
   Taras Petrenko         : DFT Hessian,TD-DFT gradient, ASA, ECA, R-Raman, ABS, FL, XAS/XES, NRVS
   Peter Pinski           : DLPNO-MP2, DLPNO-MP2 Gradient
   Christoph Reimann      : Effective Core Potentials
   Marius Retegan         : Local ZFS, SOC
   Christoph Riplinger    : Optimizer, TS searches, QM/MM, DLPNO-CCSD(T), (RO)-DLPNO pert. Triples
   Tobias Risthaus        : Range-separated hybrids, TD-DFT gradient, RPA, STAB
   Michael Roemelt        : Original ROCIS implementation
   Masaaki Saitow         : Open-shell DLPNO-CCSD energy and density
   Barbara Sandhoefer     : DKH picture change effects
   Avijit Sen             : IP-ROCIS
   Kantharuban Sivalingam : CASSCF convergence, NEVPT2, FIC-MRCI
   Bernardo de Souza      : ESD, SOC TD-DFT
   Georgi Stoychev        : AutoAux, RI-MP2 NMR, DLPNO-MP2 response
   Willem Van den Heuvel  : Paramagnetic NMR
   Boris Wezisla          : Elementary symmetry handling
   Frank Wennmohs         : Technical directorship


 We gratefully acknowledge several colleagues who have allowed us to
 interface, adapt or use parts of their codes:
   Stefan Grimme, W. Hujo, H. Kruse, P. Pracht,  : VdW corrections, initial TS optimization,
                  C. Bannwarth, S. Ehlert          DFT functionals, gCP, sTDA/sTD-DF
   Ed Valeev, F. Pavosevic, A. Kumar             : LibInt (2-el integral package), F12 methods
   Garnet Chan, S. Sharma, J. Yang, R. Olivares  : DMRG
   Ulf Ekstrom                                   : XCFun DFT Library
   Mihaly Kallay                                 : mrcc  (arbitrary order and MRCC methods)
   Jiri Pittner, Ondrej Demel                    : Mk-CCSD
   Frank Weinhold                                : gennbo (NPA and NBO analysis)
   Christopher J. Cramer and Donald G. Truhlar   : smd solvation model
   Lars Goerigk                                  : TD-DFT with DH, B97 family of functionals
   V. Asgeirsson, H. Jonsson                     : NEB implementation
   FAccTs GmbH                                   : IRC, NEB, NEB-TS, DLPNO-Multilevel, CI-OPT
                                                   MM, QMMM, 2- and 3-layer-ONIOM, Crystal-QMMM,
                                                   LR-CPCM, SF, NACMEs, symmetry and pop. for TD-DFT,
                                                   nearIR, NL-DFT gradient (VV10), updates on ESD,
                                                   ML-optimized integration grids
   S Lehtola, MJT Oliveira, MAL Marques          : LibXC Library
   Liviu Ungur et al                             : ANISO software


 Your calculation uses the libint2 library for the computation of 2-el integrals
 For citations please refer to: http://libint.valeyev.net

 Your ORCA version has been built with support for libXC version: 5.1.0
 For citations please refer to: https://tddft.org/programs/libxc/

 This ORCA versions uses:
   CBLAS   interface :  Fast vector & matrix operations
   LAPACKE interface :  Fast linear algebra routines
   Shared memory     :  Shared parallel matrices


Your calculation utilizes the atom-pairwise dispersion correction
based on tight binding partial charges (D4)
Cite in your paper:
E.Caldeweyher, C.Bannwarth, S.Grimme, J.Chem.Phys., (2017), 147, 034112.
E.Caldeweyher, S.Ehlert, A.Hansen, H.Neugebauer, S.Grimme, J.Chem.Phys., (2018), in progress.
   

================================================================================

----- Orbital basis set information -----
Your calculation utilizes the basis: cc-pVDZ 
       H, B-Ne : Obtained from the ccRepo (grant-hill.group.shef.ac.uk/ccrepo) Feb. 2017
                 T. H. Dunning, Jr., J. Chem. Phys. 90, 1007 (1989)
            He : Obtained from the ccRepo (grant-hill.group.shef.ac.uk/ccrepo) Feb. 2017
                 D. E. Woon, T. H. Dunning, Jr., J. Chem. Phys. 100, 2975 (1994)
  Li-Be, Na-Mg : Obtained from the ccRepo (grant-hill.group.shef.ac.uk/ccrepo) Feb. 2017
                 B. P. Prascher, D. E. Woon, K. A. Peterson, T. H. Dunning, Jr., A. K. Wilson, Theor. Chem. Acc. 128, 69 (2011)
         Al-Ar : Obtained from the ccRepo (grant-hill.group.shef.ac.uk/ccrepo) Feb. 2017
                 D. E. Woon, T. H. Dunning, Jr., J. Chem. Phys. 98, 1358 (1993)
            Ca : Obtained from the Peterson Research Group Website (tyr0.chem.wsu.edu/~kipeters) Feb. 2017
                 J. Koput, K. A. Peterson, J. Phys. Chem. 106, 9595 (2002)
         Sc-Zn : Obtained from the ccRepo (grant-hill.group.shef.ac.uk/ccrepo) Feb. 2017
                 N. B. Balabanov, K. A. Peterson, J. Chem. Phys. 123, 064107 (2005)
                 N. B. Balabanov, K. A. Peterson, J. Chem. Phys. 125, 074110 (2006)
         Ga-Kr : Obtained from the ccRepo (grant-hill.group.shef.ac.uk/ccrepo) Feb. 2017
                 A. K. Wilson, D. E. Woon, K. A. Peterson, T. H. Dunning, Jr., J. Chem. Phys. 110, 7667 (1999)

----- AuxJ basis set information -----
Your calculation utilizes the auxiliary basis: def2/J
   F. Weigend, Phys. Chem. Chem. Phys. 8, 1057 (2006).

----- AuxC basis set information -----
Your calculation utilizes the auxiliary basis: cc-pVDZ/C 
  H-He, B, Ne, Al-Ar, Ga-Br : Obtained from the EMSL Basis Set Exchange (bse.pnl.gov) Feb. 2017
                              F. Weigend, A. Kohn, C. Hattig, J. Chem. Phys. 116, 3175 (2002)
               Li-Be, Na-Mg : Obtained from the EMSL Basis Set Exchange (bse.pnl.gov) Feb. 2017
                              C. Haettig, Phys. Chem. Chem. Phys. 7, 59 (2005)
                        C-F : Obtained from the EMSL Basis Set Exchange (bse.pnl.gov) Feb. 2017
                              C. Haettig, Phys. Chem. Chem. Phys. 7, 59 (2005)
                              F. Weigend, A. Kohn, C. Hattig, J. Chem. Phys. 116, 3175 (2002)
                         Kr : Obtained from the TURBOMOLE 7.0 basis set library
                              F. Weigend, A. Kohn, C. Hattig, J. Chem. Phys. 116, 3175 (2002)
                              S function revised in Sep. 2009

================================================================================
                                        WARNINGS
                       Please study these warnings very carefully!
================================================================================



WARNING: Found flag for RIJCOSX approximation but no HF exchange needed!
  ===> : RIJCOSX  will be disabled and Split-RI-J is turned on

WARNING: Geometry Optimization
  ===> : Switching off AutoStart
         For restart on a previous wavefunction, please use MOREAD

INFO   : the flag for use of the SHARK integral package has been found!

================================================================================
                                       INPUT FILE
================================================================================
NAME = opt2.inp
|  1> !BP86 cc-pVDZ OPT FREQ cc-pVDZ/C D4 RIJCOSX
|  2> 
|  3> * xyz 0 1
|  4>    C       -2.64719        1.25812       -0.01564
|  5>    C       -3.75505        0.38815       -0.00495
|  6>    C       -3.58758       -0.99357        0.00048
|  7>    C       -2.30545       -1.55120        0.00103
|  8>    C       -1.19668       -0.70069        0.00060
|  9>    C       -1.36339        0.68456       -0.00515
| 10>    H       -4.76434        0.80346       -0.00129
| 11>    H       -4.45279       -1.65564        0.00138
| 12>    H       -0.18747       -1.11940        0.00155
| 13>    H       -0.48331        1.32983       -0.00151
| 14>    N       -2.81901        2.63126        0.07515
| 15>    H       -3.74150        3.03708       -0.38213
| 16>    H       -2.02625        3.25353       -0.38255
| 17>    O       -2.20017       -2.92903        0.00003
| 18>    H       -1.25647       -3.15886        0.00156
| 19> **                         ****END OF INPUT****
================================================================================

                       *****************************
                       * Geometry Optimization Run *
                       *****************************

Geometry optimization settings:
Update method            Update   .... BFGS
Choice of coordinates    CoordSys .... Z-matrix Internals
Initial Hessian          InHess   .... Almoef's Model

Convergence Tolerances:
Energy Change            TolE     ....  5.0000e-06 Eh
Max. Gradient            TolMAXG  ....  3.0000e-04 Eh/bohr
RMS Gradient             TolRMSG  ....  1.0000e-04 Eh/bohr
Max. Displacement        TolMAXD  ....  4.0000e-03 bohr
RMS Displacement         TolRMSD  ....  2.0000e-03 bohr
Strict Convergence                ....  False
------------------------------------------------------------------------------
                        ORCA OPTIMIZATION COORDINATE SETUP
------------------------------------------------------------------------------

The optimization will be done in new redundant internal coordinates
Making redundant internal coordinates   ...  (new redundants) done
Evaluating the initial hessian          ...  (Almloef) done
Evaluating the coordinates              ...  done
Calculating the B-matrix                .... done
Calculating the G-matrix                .... done
Diagonalizing the G-matrix              .... done
The first mode is                       ....   28
The number of degrees of freedom        ....   39

    -----------------------------------------------------------------
                    Redundant Internal Coordinates


    -----------------------------------------------------------------
         Definition                    Initial Value    Approx d2E/dq
    -----------------------------------------------------------------
      1. B(C   1,C   0)                  1.4087         0.583407   
      2. B(C   2,C   1)                  1.3918         0.620581   
      3. B(C   3,C   2)                  1.3981         0.606379   
      4. B(C   4,C   3)                  1.3974         0.608031   
      5. B(C   5,C   4)                  1.3953         0.612845   
      6. B(C   5,C   0)                  1.4061         0.588832   
      7. B(H   6,C   1)                  1.0914         0.358248   
      8. B(H   7,C   2)                  1.0895         0.360813   
      9. B(H   8,C   4)                  1.0926         0.356648   
     10. B(H   9,C   5)                  1.0913         0.358389   
     11. B(N  10,C   0)                  1.3868         0.566166   
     12. B(H  11,N  10)                  1.1067         0.303332   
     13. B(H  12,N  10)                  1.1069         0.303133   
     14. B(O  13,C   3)                  1.3818         0.576612   
     15. B(H  14,O  13)                  0.9713         0.498842   
     16. A(C   1,C   0,N  10)          120.9012         0.419678   
     17. A(C   5,C   0,N  10)          121.0978         0.420372   
     18. A(C   1,C   0,C   5)          117.7796         0.425397   
     19. A(C   0,C   1,H   6)          119.4925         0.348996   
     20. A(C   2,C   1,H   6)          119.2760         0.352657   
     21. A(C   0,C   1,C   2)          121.2315         0.429420   
     22. A(C   1,C   2,H   7)          120.5129         0.353083   
     23. A(C   3,C   2,H   7)          119.0709         0.351703   
     24. A(C   1,C   2,C   3)          120.4160         0.432408   
     25. A(C   2,C   3,C   4)          119.0037         0.430824   
     26. A(C   2,C   3,O  13)          117.8749         0.423964   
     27. A(C   4,C   3,O  13)          123.1214         0.424171   
     28. A(C   5,C   4,H   8)          119.3953         0.351643   
     29. A(C   3,C   4,H   8)          119.9760         0.351175   
     30. A(C   3,C   4,C   5)          120.6284         0.431646   
     31. A(C   4,C   5,H   9)          119.3850         0.351933   
     32. A(C   0,C   5,H   9)          119.6783         0.349565   
     33. A(C   0,C   5,C   4)          120.9367         0.429166   
     34. A(H  11,N  10,H  12)          102.7086         0.271404   
     35. A(C   0,N  10,H  12)          116.1570         0.332735   
     36. A(C   0,N  10,H  11)          116.0591         0.332772   
     37. A(C   3,O  13,H  14)          108.0568         0.362955   
     38. D(H   6,C   1,C   0,C   5)    179.3130         0.023397   
     39. D(C   2,C   1,C   0,C   5)     -0.7144         0.023397   
     40. D(C   2,C   1,C   0,N  10)   -175.3654         0.023397   
     41. D(H   6,C   1,C   0,N  10)      4.6621         0.023397   
     42. D(C   3,C   2,C   1,C   0)      0.2679         0.026652   
     43. D(C   3,C   2,C   1,H   6)   -179.7595         0.026652   
     44. D(H   7,C   2,C   1,H   6)      0.4224         0.026652   
     45. D(H   7,C   2,C   1,C   0)   -179.5502         0.026652   
     46. D(O  13,C   3,C   2,H   7)      0.1255         0.025378   
     47. D(O  13,C   3,C   2,C   1)   -179.6952         0.025378   
     48. D(C   4,C   3,C   2,H   7)   -179.9660         0.025378   
     49. D(C   4,C   3,C   2,C   1)      0.2133         0.025378   
     50. D(H   8,C   4,C   3,C   2)    179.9679         0.025524   
     51. D(C   5,C   4,C   3,O  13)    179.6750         0.025524   
     52. D(C   5,C   4,C   3,C   2)     -0.2284         0.025524   
     53. D(H   8,C   4,C   3,O  13)     -0.1287         0.025524   
     54. D(H   9,C   5,C   4,H   8)     -0.4281         0.025953   
     55. D(C   0,C   5,C   4,H   8)    179.5673         0.025953   
     56. D(C   0,C   5,C   4,C   3)     -0.2375         0.025953   
     57. D(H   9,C   5,C   0,N  10)     -4.6671         0.023856   
     58. D(H   9,C   5,C   0,C   1)   -179.3070         0.023856   
     59. D(H   9,C   5,C   4,C   3)    179.7670         0.025953   
     60. D(C   4,C   5,C   0,N  10)    175.3374         0.023856   
     61. D(C   4,C   5,C   0,C   1)      0.6976         0.023856   
     62. D(H  12,N  10,C   0,C   5)     32.3657         0.025632   
     63. D(H  12,N  10,C   0,C   1)   -153.1617         0.025632   
     64. D(H  11,N  10,C   0,C   5)    153.2293         0.025632   
     65. D(H  11,N  10,C   0,C   1)    -32.2981         0.025632   
     66. D(H  14,O  13,C   3,C   4)      0.1566         0.024165   
     67. D(H  14,O  13,C   3,C   2)   -179.9390         0.024165   
    -----------------------------------------------------------------

Number of atoms                         .... 15
Number of degrees of freedom            .... 67

         *************************************************************
         *                GEOMETRY OPTIMIZATION CYCLE   1            *
         *************************************************************
---------------------------------
CARTESIAN COORDINATES (ANGSTROEM)
---------------------------------
  C     -2.647190    1.258120   -0.015640
  C     -3.755050    0.388150   -0.004950
  C     -3.587580   -0.993570    0.000480
  C     -2.305450   -1.551200    0.001030
  C     -1.196680   -0.700690    0.000600
  C     -1.363390    0.684560   -0.005150
  H     -4.764340    0.803460   -0.001290
  H     -4.452790   -1.655640    0.001380
  H     -0.187470   -1.119400    0.001550
  H     -0.483310    1.329830   -0.001510
  N     -2.819010    2.631260    0.075150
  H     -3.741500    3.037080   -0.382130
  H     -2.026250    3.253530   -0.382550
  O     -2.200170   -2.929030    0.000030
  H     -1.256470   -3.158860    0.001560

----------------------------
CARTESIAN COORDINATES (A.U.)
----------------------------
  NO LB      ZA    FRAG     MASS         X           Y           Z
   0 C     6.0000    0    12.011   -5.002464    2.377502   -0.029555
   1 C     6.0000    0    12.011   -7.096016    0.733497   -0.009354
   2 C     6.0000    0    12.011   -6.779544   -1.877575    0.000907
   3 C     6.0000    0    12.011   -4.356669   -2.931343    0.001946
   4 C     6.0000    0    12.011   -2.261397   -1.324112    0.001134
   5 C     6.0000    0    12.011   -2.576434    1.293631   -0.009732
   6 H     1.0000    0     1.008   -9.003298    1.518319   -0.002438
   7 H     1.0000    0     1.008   -8.414554   -3.128706    0.002608
   8 H     1.0000    0     1.008   -0.354267   -2.115359    0.002929
   9 H     1.0000    0     1.008   -0.913324    2.513015   -0.002853
  10 N     7.0000    0    14.007   -5.327157    4.972361    0.142013
  11 H     1.0000    0     1.008   -7.070410    5.739249   -0.722121
  12 H     1.0000    0     1.008   -3.829058    6.148281   -0.722915
  13 O     8.0000    0    15.999   -4.157719   -5.535065    0.000057
  14 H     1.0000    0     1.008   -2.374384   -5.969380    0.002948

--------------------------------
INTERNAL COORDINATES (ANGSTROEM)
--------------------------------
 C      0   0   0     0.000000000000     0.00000000     0.00000000
 C      1   0   0     1.408657466029     0.00000000     0.00000000
 C      2   1   0     1.391842607553   121.23145900     0.00000000
 C      3   2   1     1.398144790893   120.41602433     0.26786894
 C      4   3   2     1.397404149808   119.00365630     0.21331613
 C      5   4   3     1.395257269861   120.62837033   359.77157881
 H      2   1   3     1.091403727225   119.49250803   180.02742435
 H      3   2   1     1.089461260899   120.51286586   180.44975729
 H      5   4   3     1.092622437395   119.97603026   179.96786630
 H      6   5   4     1.091296215012   119.38497086   179.76701329
 N      1   2   3     1.386823130792   120.90118078   184.63463189
 H     11   1   2     1.106698997424   116.05913027   327.70188042
 H     11   1   2     1.106877436982   116.15702145   206.83830183
 O      4   3   2     1.381846730756   117.87486369   180.30479708
 H     14   4   3     0.971284644067   108.05681738   180.06101959

---------------------------
INTERNAL COORDINATES (A.U.)
---------------------------
 C      0   0   0     0.000000000000     0.00000000     0.00000000
 C      1   0   0     2.661976827299     0.00000000     0.00000000
 C      2   1   0     2.630201349798   121.23145900     0.00000000
 C      3   2   1     2.642110750356   120.41602433     0.26786894
 C      4   3   2     2.640711141542   119.00365630     0.21331613
 C      5   4   3     2.636654126400   120.62837033   359.77157881
 H      2   1   3     2.062454145996   119.49250803   180.02742435
 H      3   2   1     2.058783416616   120.51286586   180.44975729
 H      5   4   3     2.064757174455   119.97603026   179.96786630
 H      6   5   4     2.062250977358   119.38497086   179.76701329
 N      1   2   3     2.620715913384   120.90118078   184.63463189
 H     11   1   2     2.091358017817   116.05913027   327.70188042
 H     11   1   2     2.091695219713   116.15702145   206.83830183
 O      4   3   2     2.611311880183   117.87486369   180.30479708
 H     14   4   3     1.835461975369   108.05681738   180.06101959

---------------------
BASIS SET INFORMATION
---------------------
There are 4 groups of distinct atoms

 Group   1 Type C   : 17s4p1d contracted to 3s2p1d pattern {881/31/1}
 Group   2 Type H   : 4s1p contracted to 2s1p pattern {31/1}
 Group   3 Type N   : 17s4p1d contracted to 3s2p1d pattern {881/31/1}
 Group   4 Type O   : 17s4p1d contracted to 3s2p1d pattern {881/31/1}

Atom   0C    basis set group =>   1
Atom   1C    basis set group =>   1
Atom   2C    basis set group =>   1
Atom   3C    basis set group =>   1
Atom   4C    basis set group =>   1
Atom   5C    basis set group =>   1
Atom   6H    basis set group =>   2
Atom   7H    basis set group =>   2
Atom   8H    basis set group =>   2
Atom   9H    basis set group =>   2
Atom  10N    basis set group =>   3
Atom  11H    basis set group =>   2
Atom  12H    basis set group =>   2
Atom  13O    basis set group =>   4
Atom  14H    basis set group =>   2
---------------------------------
AUXILIARY/J BASIS SET INFORMATION
---------------------------------
There are 4 groups of distinct atoms

 Group   1 Type C   : 12s5p4d2f1g contracted to 6s4p3d1f1g pattern {711111/2111/211/2/1}
 Group   2 Type H   : 5s2p1d contracted to 3s1p1d pattern {311/2/1}
 Group   3 Type N   : 12s5p4d2f1g contracted to 6s4p3d1f1g pattern {711111/2111/211/2/1}
 Group   4 Type O   : 12s5p4d2f1g contracted to 6s4p3d1f1g pattern {711111/2111/211/2/1}

Atom   0C    basis set group =>   1
Atom   1C    basis set group =>   1
Atom   2C    basis set group =>   1
Atom   3C    basis set group =>   1
Atom   4C    basis set group =>   1
Atom   5C    basis set group =>   1
Atom   6H    basis set group =>   2
Atom   7H    basis set group =>   2
Atom   8H    basis set group =>   2
Atom   9H    basis set group =>   2
Atom  10N    basis set group =>   3
Atom  11H    basis set group =>   2
Atom  12H    basis set group =>   2
Atom  13O    basis set group =>   4
Atom  14H    basis set group =>   2
---------------------------------
AUXILIARY/C BASIS SET INFORMATION
---------------------------------
There are 4 groups of distinct atoms

 Group   1 Type C   : 7s5p4d2f contracted to 7s5p4d2f pattern {1111111/11111/1111/11}
 Group   2 Type H   : 3s2p1d contracted to 3s2p1d pattern {111/11/1}
 Group   3 Type N   : 7s5p4d2f contracted to 7s5p4d2f pattern {1111111/11111/1111/11}
 Group   4 Type O   : 7s5p4d2f contracted to 7s5p4d2f pattern {1111111/11111/1111/11}

Atom   0C    basis set group =>   1
Atom   1C    basis set group =>   1
Atom   2C    basis set group =>   1
Atom   3C    basis set group =>   1
Atom   4C    basis set group =>   1
Atom   5C    basis set group =>   1
Atom   6H    basis set group =>   2
Atom   7H    basis set group =>   2
Atom   8H    basis set group =>   2
Atom   9H    basis set group =>   2
Atom  10N    basis set group =>   3
Atom  11H    basis set group =>   2
Atom  12H    basis set group =>   2
Atom  13O    basis set group =>   4
Atom  14H    basis set group =>   2
------------------------------------------------------------------------------
                           ORCA GTO INTEGRAL CALCULATION
                           -- RI-GTO INTEGRALS CHOSEN --
------------------------------------------------------------------------------
------------------------------------------------------------------------------
                   ___                                                        
                  /   \      - P O W E R E D   B Y -                         
                 /     \                                                     
                 |  |  |   _    _      __       _____    __    __             
                 |  |  |  | |  | |    /  \     |  _  \  |  |  /  |          
                  \  \/   | |  | |   /    \    | | | |  |  | /  /          
                 / \  \   | |__| |  /  /\  \   | |_| |  |  |/  /          
                |  |  |   |  __  | /  /__\  \  |    /   |      \           
                |  |  |   | |  | | |   __   |  |    \   |  |\   \          
                \     /   | |  | | |  |  |  |  | |\  \  |  | \   \       
                 \___/    |_|  |_| |__|  |__|  |_| \__\ |__|  \__/        
                                                                              
                      - O R C A' S   B I G   F R I E N D -                    
                                      &                                       
                       - I N T E G R A L  F E E D E R -                       
                                                                              
 v1 FN, 2020, v2 2021                                                         
------------------------------------------------------------------------------


Reading SHARK input file opt2.SHARKINP.tmp ... ok
----------------------
SHARK INTEGRAL PACKAGE
----------------------

Number of atoms                             ...     15
Number of basis functions                   ...    195
Number of shells                            ...    117
Maximum angular momentum                    ...      2
Integral batch strategy                     ... SHARK/LIBINT Hybrid
RI-J (if used) integral strategy            ... SPLIT-RIJ (Revised 2003 algorithm where possible)
Printlevel                                  ...      1
Contraction scheme used                     ... PARTIAL GENERAL contraction
Coulomb Range Separation                    ... NOT USED
Exchange Range Separation                   ... NOT USED
Finite Nucleus Model                        ... NOT USED
Auxiliary Coulomb fitting basis             ... AVAILABLE
   # of basis functions in Aux-J            ...    469
   # of shells in Aux-J                     ...    155
   Maximum angular momentum in Aux-J        ...      4
Auxiliary J/K fitting basis                 ... NOT available
Auxiliary Correlation fitting basis         ... AVAILABLE
   # of basis functions in Aux-C            ...    546
   # of shells in Aux-C                     ...    186
   Maximum angular momentum in Aux-C        ...      3
Auxiliary 'external' fitting basis          ... NOT available
Integral threshold                          ...     2.500000e-11
Primitive cut-off                           ...     2.500000e-12
Primitive pair pre-selection threshold      ...     2.500000e-12

Calculating pre-screening integrals         ... done (  0.1 sec) Dimension = 117
Calculating pre-screening integrals (ORCA)  ... done (  0.2 sec) Dimension = 69
Organizing shell pair data                  ... done (  0.1 sec)
Shell pair information
Total number of shell pairs                 ...      6903
Shell pairs after pre-screening             ...      5018
Total number of primitive shell pairs       ...     10923
Primitive shell pairs kept                  ...      7104
          la=0 lb=0:   2257 shell pairs
          la=1 lb=0:   1677 shell pairs
          la=1 lb=1:    263 shell pairs
          la=2 lb=0:    609 shell pairs
          la=2 lb=1:    177 shell pairs
          la=2 lb=2:     35 shell pairs

Calculating one electron integrals          ... done (  0.0 sec)
Calculating RI/J V-Matrix + Cholesky decomp.... done (  0.0 sec)
Calculating RI/C V-Matrix + Cholesky decomp.... done (  0.0 sec)
Calculating Nuclear repulsion               ... done (  0.0 sec) ENN=    342.792748980144 Eh

SHARK setup successfully completed in   0.7 seconds

Maximum memory used throughout the entire GTOINT-calculation: 21.7 MB
-------------------------------------------------------------------------------
                                 ORCA SCF
-------------------------------------------------------------------------------

------------
SCF SETTINGS
------------
Hamiltonian:
 Density Functional     Method          .... DFT(GTOs)
 Exchange Functional    Exchange        .... B88
   X-Alpha parameter    XAlpha          ....  0.666667
   Becke's b parameter  XBeta           ....  0.004200
 Correlation Functional Correlation     .... P86
 LDA part of GGA corr.  LDAOpt          .... PW91-LDA
 Gradients option       PostSCFGGA      .... off
   Density functional embedding theory  .... OFF
   NL short-range parameter             ....  4.400000
 RI-approximation to the Coulomb term is turned on
   Number of AuxJ basis functions       .... 469


General Settings:
 Integral files         IntName         .... opt2
 Hartree-Fock type      HFTyp           .... RHF
 Total Charge           Charge          ....    0
 Multiplicity           Mult            ....    1
 Number of Electrons    NEL             ....   58
 Basis Dimension        Dim             ....  147
 Nuclear Repulsion      ENuc            ....    342.7927489801 Eh

Convergence Acceleration:
 DIIS                   CNVDIIS         .... on
   Start iteration      DIISMaxIt       ....    12
   Startup error        DIISStart       ....  0.200000
   # of expansion vecs  DIISMaxEq       ....     5
   Bias factor          DIISBfac        ....   1.050
   Max. coefficient     DIISMaxC        ....  10.000
 Trust-Rad. Augm. Hess. CNVTRAH         .... auto
   Auto Start mean grad. ratio tolernc. ....  1.125000
   Auto Start start iteration           ....    20
   Auto Start num. interpolation iter.  ....    10
   Max. Number of Micro iterations      ....    16
   Max. Number of Macro iterations      .... Maxiter - #DIIS iter
   Number of Davidson start vectors     ....     2
   Converg. threshold I  (grad. norm)   ....   1.000e-05
   Converg. threshold II (energy diff.) ....   1.000e-08
   Grad. Scal. Fac. for Micro threshold ....   0.100
   Minimum threshold for Micro iter.    ....   0.010
   NR start threshold (gradient norm)   ....   0.001
   Initial trust radius                 ....   0.400
   Minimum AH scaling param. (alpha)    ....   1.000
   Maximum AH scaling param. (alpha)    .... 1000.000
   Orbital update algorithm             .... Taylor
   White noise on init. David. guess    .... on
   Maximum white noise                  ....   0.010
   Quad. conv. algorithm                .... NR
 SOSCF                  CNVSOSCF        .... on
   Start iteration      SOSCFMaxIt      ....   150
   Startup grad/error   SOSCFStart      ....  0.003300
 Level Shifting         CNVShift        .... on
   Level shift para.    LevelShift      ....    0.2500
   Turn off err/grad.   ShiftErr        ....    0.0010
 Zerner damping         CNVZerner       .... off
 Static damping         CNVDamp         .... on
   Fraction old density DampFac         ....    0.7000
   Max. Damping (<1)    DampMax         ....    0.9800
   Min. Damping (>=0)   DampMin         ....    0.0000
   Turn off err/grad.   DampErr         ....    0.1000
 Fernandez-Rico         CNVRico         .... off

SCF Procedure:
 Maximum # iterations   MaxIter         ....   125
 SCF integral mode      SCFMode         .... Direct
   Integral package                     .... SHARK and LIBINT hybrid scheme
 Reset frequency        DirectResetFreq ....    20
 Integral Threshold     Thresh          ....  2.500e-11 Eh
 Primitive CutOff       TCut            ....  2.500e-12 Eh

Convergence Tolerance:
 Convergence Check Mode ConvCheckMode   .... Total+1el-Energy
 Convergence forced     ConvForced      .... 0
 Energy Change          TolE            ....  1.000e-08 Eh
 1-El. energy change                    ....  1.000e-05 Eh
 Orbital Gradient       TolG            ....  1.000e-05
 Orbital Rotation angle TolX            ....  1.000e-05
 DIIS Error             TolErr          ....  5.000e-07


Diagonalization of the overlap matrix:
Smallest eigenvalue                        ... 3.774e-04
Time for diagonalization                   ...    0.012 sec
Threshold for overlap eigenvalues          ... 1.000e-08
Number of eigenvalues below threshold      ... 0
Time for construction of square roots      ...    0.005 sec
Total time needed                          ...    0.017 sec

Time for model grid setup =    0.533 sec

------------------------------
INITIAL GUESS: MODEL POTENTIAL
------------------------------
Loading Hartree-Fock densities                     ... done
Calculating cut-offs                               ... done
Initializing the effective Hamiltonian             ... done
Setting up the integral package (SHARK)            ... done
Starting the Coulomb interaction                   ... done (   1.2 sec)
Reading the grid                                   ... done
Mapping shells                                     ... done
Starting the XC term evaluation                    ... done (   0.8 sec)
  promolecular density results
     # of electrons  =     57.992706693
     EX              =    -47.676182785
     EC              =     -2.105504633
     EX+EC           =    -49.781687418
Transforming the Hamiltonian                       ... done (   0.0 sec)
Diagonalizing the Hamiltonian                      ... done (   0.0 sec)
Back transforming the eigenvectors                 ... done (   0.0 sec)
Now organizing SCF variables                       ... done
                      ------------------
                      INITIAL GUESS DONE (   2.5 sec)
                      ------------------
-------------------
DFT GRID GENERATION
-------------------

General Integration Accuracy     IntAcc      ... 4.388
Radial Grid Type                 RadialGrid  ... OptM3 with GC (2021)
Angular Grid (max. ang.)         AngularGrid ... 4 (Lebedev-302)
Angular grid pruning method      GridPruning ... 4 (adaptive)
Weight generation scheme         WeightScheme... Becke
Basis function cutoff            BFCut       ... 1.0000e-11
Integration weight cutoff        WCut        ... 1.0000e-14
Angular grids for H and He will be reduced by one unit
Partially contracted basis set               ... off
Rotationally invariant grid construction     ... off

Total number of grid points                  ...    70800
Total number of batches                      ...     1115
Average number of points per batch           ...       63
Average number of grid points per atom       ...     4720
Time for grid setup =    2.205 sec

--------------
SCF ITERATIONS
--------------
ITER       Energy         Delta-E        Max-DP      RMS-DP      [F,P]     Damp
               ***  Starting incremental Fock matrix formation  ***
  0   -362.6395108217   0.000000000000 0.07439205  0.00246424  0.2125284 0.7000
  1   -362.7395572966  -0.100046474921 0.04315834  0.00170664  0.0900693 0.7000
                               ***Turning on DIIS***
  2   -362.7744054423  -0.034848145731 0.04835362  0.00251669  0.0219068 0.0000
  3   -362.8256947861  -0.051289343768 0.03042307  0.00113419  0.0526110 0.0000
  4   -362.8412458627  -0.015551076613 0.00832928  0.00039411  0.0129241 0.0000
  5   -362.8422970542  -0.001051191504 0.00347359  0.00013707  0.0052791 0.0000
                      *** Initiating the SOSCF procedure ***
                           *** Shutting down DIIS ***
                      *** Re-Reading the Fockian *** 
                      *** Removing any level shift *** 
ITER      Energy       Delta-E        Grad      Rot      Max-DP    RMS-DP
  6   -362.84240623  -0.0001091715  0.000331  0.000331  0.001374  0.000074
               *** Restarting incremental Fock matrix formation ***
  7   -362.84240770  -0.0000014730  0.000532  0.003488  0.002682  0.000081
  8   -362.84238189   0.0000258076  0.001513  0.002679  0.002022  0.000060
  9   -362.84241185  -0.0000299574  0.000087  0.000393  0.000500  0.000013
 10   -362.84241124   0.0000006068  0.000179  0.000281  0.000357  0.000009
 11   -362.84241202  -0.0000007798  0.000011  0.000053  0.000106  0.000002
 12   -362.84241201   0.0000000154  0.000019  0.000050  0.000078  0.000001
 13   -362.84241203  -0.0000000198  0.000005  0.000034  0.000026  0.000001
 14   -362.84241203  -0.0000000031  0.000011  0.000024  0.000018  0.000001
                  ***Gradient check signals convergence***
              ***Rediagonalizing the Fockian in SOSCF/NRSCF***

               *****************************************************
               *                     SUCCESS                       *
               *           SCF CONVERGED AFTER  15 CYCLES          *
               *****************************************************


----------------
TOTAL SCF ENERGY
----------------

Total Energy       :         -362.84241203 Eh           -9873.44399 eV

Components:
Nuclear Repulsion  :          342.79274898 Eh            9327.86492 eV
Electronic Energy  :         -705.63516101 Eh          -19201.30891 eV
One Electron Energy:        -1170.82426802 Eh          -31859.74805 eV
Two Electron Energy:          465.18910701 Eh           12658.43914 eV

Virial components:
Potential Energy   :         -722.94679184 Eh          -19672.38233 eV
Kinetic Energy     :          360.10437981 Eh            9798.93834 eV
Virial Ratio       :            2.00760344


DFT components:
N(Alpha)           :       28.999977396282 electrons
N(Beta)            :       28.999977396282 electrons
N(Total)           :       57.999954792564 electrons
E(X)               :      -48.530248903352 Eh       
E(C)               :       -2.120418902619 Eh       
E(XC)              :      -50.650667805971 Eh       
DFET-embed. en.    :        0.000000000000 Eh       

---------------
SCF CONVERGENCE
---------------

  Last Energy change         ...    1.1884e-09  Tolerance :   1.0000e-08
  Last MAX-Density change    ...    6.0527e-06  Tolerance :   1.0000e-07
  Last RMS-Density change    ...    1.4619e-07  Tolerance :   5.0000e-09
  Last Orbital Gradient      ...    6.8415e-07  Tolerance :   1.0000e-05
  Last Orbital Rotation      ...    2.8546e-06  Tolerance :   1.0000e-05

             **** THE GBW FILE WAS UPDATED (opt2.gbw) ****
             **** DENSITY opt2.scfp WAS UPDATED ****
             **** ENERGY FILE WAS UPDATED (opt2.en.tmp) ****
             **** THE GBW FILE WAS UPDATED (opt2.gbw) ****
             **** DENSITY opt2.scfp WAS UPDATED ****
----------------
ORBITAL ENERGIES
----------------

  NO   OCC          E(Eh)            E(eV) 
   0   2.0000     -18.804129      -511.6864 
   1   2.0000     -14.031713      -381.8223 
   2   2.0000      -9.955643      -270.9068 
   3   2.0000      -9.941793      -270.5300 
   4   2.0000      -9.908801      -269.6322 
   5   2.0000      -9.906888      -269.5801 
   6   2.0000      -9.905792      -269.5503 
   7   2.0000      -9.903640      -269.4918 
   8   2.0000      -0.958536       -26.0831 
   9   2.0000      -0.826394       -22.4873 
  10   2.0000      -0.751836       -20.4585 
  11   2.0000      -0.672738       -18.3061 
  12   2.0000      -0.643481       -17.5100 
  13   2.0000      -0.559571       -15.2267 
  14   2.0000      -0.535660       -14.5761 
  15   2.0000      -0.484181       -13.1752 
  16   2.0000      -0.458833       -12.4855 
  17   2.0000      -0.435413       -11.8482 
  18   2.0000      -0.390782       -10.6337 
  19   2.0000      -0.377506       -10.2724 
  20   2.0000      -0.368694       -10.0327 
  21   2.0000      -0.354409        -9.6440 
  22   2.0000      -0.346323        -9.4239 
  23   2.0000      -0.320024        -8.7083 
  24   2.0000      -0.310535        -8.4501 
  25   2.0000      -0.288938        -7.8624 
  26   2.0000      -0.240495        -6.5442 
  27   2.0000      -0.220871        -6.0102 
  28   2.0000      -0.158223        -4.3055 
  29   0.0000      -0.031626        -0.8606 
  30   0.0000      -0.005558        -0.1512 
  31   0.0000       0.023476         0.6388 
  32   0.0000       0.035308         0.9608 
  33   0.0000       0.056149         1.5279 
  34   0.0000       0.058787         1.5997 
  35   0.0000       0.098100         2.6694 
  36   0.0000       0.120288         3.2732 
  37   0.0000       0.128068         3.4849 
  38   0.0000       0.135903         3.6981 
  39   0.0000       0.182544         4.9673 
  40   0.0000       0.218689         5.9508 
  41   0.0000       0.267701         7.2845 
  42   0.0000       0.284061         7.7297 
  43   0.0000       0.287496         7.8232 
  44   0.0000       0.301802         8.2125 
  45   0.0000       0.392727        10.6866 
  46   0.0000       0.400689        10.9033 
  47   0.0000       0.429906        11.6983 
  48   0.0000       0.432579        11.7711 
  49   0.0000       0.459530        12.5045 
  50   0.0000       0.468361        12.7448 
  51   0.0000       0.471001        12.8166 
  52   0.0000       0.474555        12.9133 
  53   0.0000       0.483253        13.1500 
  54   0.0000       0.496281        13.5045 
  55   0.0000       0.503515        13.7013 
  56   0.0000       0.516334        14.0502 
  57   0.0000       0.519688        14.1414 
  58   0.0000       0.548321        14.9206 
  59   0.0000       0.559977        15.2378 
  60   0.0000       0.574197        15.6247 
  61   0.0000       0.595225        16.1969 
  62   0.0000       0.626313        17.0428 
  63   0.0000       0.642414        17.4810 
  64   0.0000       0.647383        17.6162 
  65   0.0000       0.653639        17.7864 
  66   0.0000       0.689947        18.7744 
  67   0.0000       0.697829        18.9889 
  68   0.0000       0.721709        19.6387 
  69   0.0000       0.763170        20.7669 
  70   0.0000       0.782984        21.3061 
  71   0.0000       0.809818        22.0363 
  72   0.0000       0.856210        23.2986 
  73   0.0000       0.862834        23.4789 
  74   0.0000       0.873684        23.7741 
  75   0.0000       0.895774        24.3752 
  76   0.0000       0.907871        24.7044 
  77   0.0000       0.937933        25.5225 
  78   0.0000       0.954863        25.9832 
  79   0.0000       0.966229        26.2924 
  80   0.0000       0.986248        26.8372 
  81   0.0000       0.994792        27.0697 
  82   0.0000       1.013128        27.5686 
  83   0.0000       1.027289        27.9539 
  84   0.0000       1.063727        28.9455 
  85   0.0000       1.070075        29.1182 
  86   0.0000       1.085094        29.5269 
  87   0.0000       1.181644        32.1542 
  88   0.0000       1.206459        32.8294 
  89   0.0000       1.238119        33.6909 
  90   0.0000       1.295856        35.2620 
  91   0.0000       1.364417        37.1277 
  92   0.0000       1.369792        37.2739 
  93   0.0000       1.404603        38.2212 
  94   0.0000       1.431570        38.9550 
  95   0.0000       1.454624        39.5823 
  96   0.0000       1.459103        39.7042 
  97   0.0000       1.477873        40.2150 
  98   0.0000       1.516590        41.2685 
  99   0.0000       1.523698        41.4619 
 100   0.0000       1.540799        41.9273 
 101   0.0000       1.559655        42.4404 
 102   0.0000       1.566299        42.6212 
 103   0.0000       1.585721        43.1497 
 104   0.0000       1.607557        43.7438 
 105   0.0000       1.631627        44.3988 
 106   0.0000       1.635714        44.5100 
 107   0.0000       1.680773        45.7362 
 108   0.0000       1.686761        45.8991 
 109   0.0000       1.705723        46.4151 
 110   0.0000       1.711396        46.5694 
 111   0.0000       1.716162        46.6991 
 112   0.0000       1.745415        47.4952 
 113   0.0000       1.781440        48.4754 
 114   0.0000       1.783978        48.5445 
 115   0.0000       1.823123        49.6097 
 116   0.0000       1.830104        49.7997 
 117   0.0000       1.868744        50.8511 
 118   0.0000       1.887214        51.3537 
 119   0.0000       1.911147        52.0050 
 120   0.0000       1.938672        52.7540 
 121   0.0000       1.999738        54.4156 
 122   0.0000       2.035432        55.3869 
 123   0.0000       2.062197        56.1152 
 124   0.0000       2.076910        56.5156 
 125   0.0000       2.092887        56.9504 
 126   0.0000       2.127615        57.8954 
 127   0.0000       2.137882        58.1747 
 128   0.0000       2.225997        60.5725 
 129   0.0000       2.301321        62.6221 
 130   0.0000       2.353824        64.0508 
 131   0.0000       2.365643        64.3724 
 132   0.0000       2.436127        66.2904 
 133   0.0000       2.473489        67.3071 
 134   0.0000       2.541102        69.1469 
 135   0.0000       2.576783        70.1178 
 136   0.0000       2.598503        70.7089 
 137   0.0000       2.616305        71.1933 
 138   0.0000       2.698718        73.4359 
 139   0.0000       2.795422        76.0673 
 140   0.0000       2.818615        76.6984 
 141   0.0000       2.855193        77.6937 
 142   0.0000       3.023311        82.2685 
 143   0.0000       3.088873        84.0525 
 144   0.0000       3.208537        87.3087 
 145   0.0000       3.445133        93.7468 
 146   0.0000       3.678797       100.1051 

                    ********************************
                    * MULLIKEN POPULATION ANALYSIS *
                    ********************************

-----------------------
MULLIKEN ATOMIC CHARGES
-----------------------
   0 C :    0.003150
   1 C :    0.034530
   2 C :    0.038063
   3 C :    0.020249
   4 C :   -0.001934
   5 C :    0.031464
   6 H :   -0.031720
   7 H :   -0.017536
   8 H :   -0.027202
   9 H :   -0.033150
  10 N :   -0.209049
  11 H :    0.113458
  12 H :    0.112902
  13 O :   -0.176891
  14 H :    0.143667
Sum of atomic charges:   -0.0000000

--------------------------------
MULLIKEN REDUCED ORBITAL CHARGES
--------------------------------
  0 C s       :     3.093979  s :     3.093979
      pz      :     0.984924  p :     2.789667
      px      :     1.010214
      py      :     0.794529
      dz2     :     0.006404  d :     0.113203
      dxz     :     0.012886
      dyz     :     0.026873
      dx2y2   :     0.036197
      dxy     :     0.030843
  1 C s       :     3.102137  s :     3.102137
      pz      :     1.042227  p :     2.804084
      px      :     0.829860
      py      :     0.931997
      dz2     :     0.002924  d :     0.059248
      dxz     :     0.004905
      dyz     :     0.012435
      dx2y2   :     0.017433
      dxy     :     0.021551
  2 C s       :     3.096685  s :     3.096685
      pz      :     1.022414  p :     2.805618
      px      :     0.881155
      py      :     0.902050
      dz2     :     0.002820  d :     0.059634
      dxz     :     0.007648
      dyz     :     0.010713
      dx2y2   :     0.014761
      dxy     :     0.023692
  3 C s       :     3.120090  s :     3.120090
      pz      :     1.003641  p :     2.725682
      px      :     1.021839
      py      :     0.700202
      dz2     :     0.007709  d :     0.133979
      dxz     :     0.013486
      dyz     :     0.029245
      dx2y2   :     0.046257
      dxy     :     0.037282
  4 C s       :     3.080619  s :     3.080619
      pz      :     1.056767  p :     2.861083
      px      :     0.840753
      py      :     0.963563
      dz2     :     0.002830  d :     0.060233
      dxz     :     0.005255
      dyz     :     0.013265
      dx2y2   :     0.016952
      dxy     :     0.021930
  5 C s       :     3.099415  s :     3.099415
      pz      :     1.046635  p :     2.810020
      px      :     0.853962
      py      :     0.909424
      dz2     :     0.002915  d :     0.059101
      dxz     :     0.007013
      dyz     :     0.010532
      dx2y2   :     0.015223
      dxy     :     0.023419
  6 H s       :     1.003389  s :     1.003389
      pz      :     0.007056  p :     0.028331
      px      :     0.014992
      py      :     0.006284
  7 H s       :     0.989055  s :     0.989055
      pz      :     0.006778  p :     0.028481
      px      :     0.012394
      py      :     0.009309
  8 H s       :     0.998704  s :     0.998704
      pz      :     0.007245  p :     0.028497
      px      :     0.014991
      py      :     0.006261
  9 H s       :     1.004761  s :     1.004761
      pz      :     0.007172  p :     0.028389
      px      :     0.012509
      py      :     0.008708
 10 N s       :     3.475464  s :     3.475464
      pz      :     1.587236  p :     3.710717
      px      :     1.036916
      py      :     1.086564
      dz2     :     0.001678  d :     0.022868
      dxz     :     0.004280
      dyz     :     0.006354
      dx2y2   :     0.004700
      dxy     :     0.005855
 11 H s       :     0.839960  s :     0.839960
      pz      :     0.014624  p :     0.046582
      px      :     0.022236
      py      :     0.009722
 12 H s       :     0.840542  s :     0.840542
      pz      :     0.014621  p :     0.046556
      px      :     0.018661
      py      :     0.013273
 13 O s       :     3.697288  s :     3.697288
      pz      :     1.811809  p :     4.466089
      px      :     1.312919
      py      :     1.341361
      dz2     :     0.002067  d :     0.013514
      dxz     :     0.000626
      dyz     :     0.002362
      dx2y2   :     0.006418
      dxy     :     0.002041
 14 H s       :     0.776308  s :     0.776308
      pz      :     0.022309  p :     0.080025
      px      :     0.040394
      py      :     0.017322


                     *******************************
                     * LOEWDIN POPULATION ANALYSIS *
                     *******************************

----------------------
LOEWDIN ATOMIC CHARGES
----------------------
   0 C :   -0.084159
   1 C :   -0.051411
   2 C :   -0.043929
   3 C :   -0.075664
   4 C :   -0.073220
   5 C :   -0.054729
   6 H :    0.024389
   7 H :    0.031021
   8 H :    0.023840
   9 H :    0.023428
  10 N :    0.001033
  11 H :    0.080714
  12 H :    0.080353
  13 O :    0.060992
  14 H :    0.057342

-------------------------------
LOEWDIN REDUCED ORBITAL CHARGES
-------------------------------
  0 C s       :     2.800651  s :     2.800651
      pz      :     0.957143  p :     2.971662
      px      :     1.070644
      py      :     0.943876
      dz2     :     0.018865  d :     0.311845
      dxz     :     0.032259
      dyz     :     0.066382
      dx2y2   :     0.105167
      dxy     :     0.089173
  1 C s       :     2.816512  s :     2.816512
      pz      :     0.998472  p :     3.041233
      px      :     1.005356
      py      :     1.037405
      dz2     :     0.012875  d :     0.193667
      dxz     :     0.010340
      dyz     :     0.032110
      dx2y2   :     0.065005
      dxy     :     0.073337
  2 C s       :     2.816250  s :     2.816250
      pz      :     0.980535  p :     3.034470
      px      :     1.018359
      py      :     1.035576
      dz2     :     0.013164  d :     0.193209
      dxz     :     0.017323
      dyz     :     0.027377
      dx2y2   :     0.057497
      dxy     :     0.077848
  3 C s       :     2.809532  s :     2.809532
      pz      :     0.976389  p :     2.918758
      px      :     1.082554
      py      :     0.859815
      dz2     :     0.021966  d :     0.347374
      dxz     :     0.033410
      dyz     :     0.069007
      dx2y2   :     0.121930
      dxy     :     0.101061
  4 C s       :     2.818294  s :     2.818294
      pz      :     1.006923  p :     3.058244
      px      :     1.006981
      py      :     1.044339
      dz2     :     0.013657  d :     0.196682
      dxz     :     0.011025
      dyz     :     0.034483
      dx2y2   :     0.063484
      dxy     :     0.074034
  5 C s       :     2.816015  s :     2.816015
      pz      :     1.004311  p :     3.045130
      px      :     1.010450
      py      :     1.030369
      dz2     :     0.012982  d :     0.193585
      dxz     :     0.016136
      dyz     :     0.027089
      dx2y2   :     0.058785
      dxy     :     0.078592
  6 H s       :     0.893949  s :     0.893949
      pz      :     0.019978  p :     0.081662
      px      :     0.042596
      py      :     0.019088
  7 H s       :     0.886781  s :     0.886781
      pz      :     0.019369  p :     0.082198
      px      :     0.035882
      py      :     0.026948
  8 H s       :     0.894535  s :     0.894535
      pz      :     0.020396  p :     0.081625
      px      :     0.042169
      py      :     0.019061
  9 H s       :     0.894612  s :     0.894612
      pz      :     0.020268  p :     0.081960
      px      :     0.036118
      py      :     0.025574
 10 N s       :     3.110290  s :     3.110290
      pz      :     1.561345  p :     3.824966
      px      :     1.117485
      py      :     1.146136
      dz2     :     0.003152  d :     0.063711
      dxz     :     0.010014
      dyz     :     0.013062
      dx2y2   :     0.016184
      dxy     :     0.021299
 11 H s       :     0.809889  s :     0.809889
      pz      :     0.040308  p :     0.109397
      px      :     0.047813
      py      :     0.021276
 12 H s       :     0.810316  s :     0.810316
      pz      :     0.040282  p :     0.109331
      px      :     0.039319
      py      :     0.029730
 13 O s       :     3.382934  s :     3.382934
      pz      :     1.757342  p :     4.529305
      px      :     1.405657
      py      :     1.366306
      dz2     :     0.004099  d :     0.026769
      dxz     :     0.000203
      dyz     :     0.003748
      dx2y2   :     0.014218
      dxy     :     0.004500
 14 H s       :     0.745232  s :     0.745232
      pz      :     0.056001  p :     0.197426
      px      :     0.102515
      py      :     0.038910


                      *****************************
                      * MAYER POPULATION ANALYSIS *
                      *****************************

  NA   - Mulliken gross atomic population
  ZA   - Total nuclear charge
  QA   - Mulliken gross atomic charge
  VA   - Mayer's total valence
  BVA  - Mayer's bonded valence
  FA   - Mayer's free valence

  ATOM       NA         ZA         QA         VA         BVA        FA
  0 C      5.9968     6.0000     0.0032     4.1256     4.1256     0.0000
  1 C      5.9655     6.0000     0.0345     3.9692     3.9692     0.0000
  2 C      5.9619     6.0000     0.0381     3.9962     3.9962    -0.0000
  3 C      5.9798     6.0000     0.0202     4.1477     4.1477    -0.0000
  4 C      6.0019     6.0000    -0.0019     3.9417     3.9417    -0.0000
  5 C      5.9685     6.0000     0.0315     3.9741     3.9741     0.0000
  6 H      1.0317     1.0000    -0.0317     0.9753     0.9753     0.0000
  7 H      1.0175     1.0000    -0.0175     0.9848     0.9848    -0.0000
  8 H      1.0272     1.0000    -0.0272     0.9735     0.9735    -0.0000
  9 H      1.0332     1.0000    -0.0332     0.9764     0.9764     0.0000
 10 N      7.2090     7.0000    -0.2090     3.1828     3.1828     0.0000
 11 H      0.8865     1.0000     0.1135     0.9962     0.9962    -0.0000
 12 H      0.8871     1.0000     0.1129     0.9963     0.9963     0.0000
 13 O      8.1769     8.0000    -0.1769     2.3281     2.3281     0.0000
 14 H      0.8563     1.0000     0.1437     1.0437     1.0437     0.0000

  Mayer bond orders larger than 0.100000
B(  0-C ,  1-C ) :   1.3592 B(  0-C ,  5-C ) :   1.3760 B(  0-C , 10-N ) :   1.1766 
B(  1-C ,  2-C ) :   1.5061 B(  1-C ,  6-H ) :   0.9213 B(  2-C ,  3-C ) :   1.3881 
B(  2-C ,  7-H ) :   0.9163 B(  3-C ,  4-C ) :   1.3570 B(  3-C , 13-O ) :   1.1996 
B(  4-C ,  5-C ) :   1.4769 B(  4-C ,  8-H ) :   0.9137 B(  5-C ,  9-H ) :   0.9175 
B( 10-N , 11-H ) :   0.9461 B( 10-N , 12-H ) :   0.9462 B( 13-O , 14-H ) :   0.9981 


-------
TIMINGS
-------

Total SCF time: 0 days 0 hours 1 min 8 sec 

Total time                  ....      68.142 sec
Sum of individual times     ....      62.751 sec  ( 92.1%)

Fock matrix formation       ....      57.353 sec  ( 84.2%)
  Split-RI-J                ....      12.494 sec  ( 21.8% of F)
  XC integration            ....      39.483 sec  ( 68.8% of F)
    Basis function eval.    ....      16.242 sec  ( 41.1% of XC)
    Density eval.           ....      10.564 sec  ( 26.8% of XC)
    XC-Functional eval.     ....       2.838 sec  (  7.2% of XC)
    XC-Potential eval.      ....       8.254 sec  ( 20.9% of XC)
Diagonalization             ....       0.055 sec  (  0.1%)
Density matrix formation    ....       0.010 sec  (  0.0%)
Population analysis         ....       0.433 sec  (  0.6%)
Initial guess               ....       1.986 sec  (  2.9%)
Orbital Transformation      ....       0.000 sec  (  0.0%)
Orbital Orthonormalization  ....       0.000 sec  (  0.0%)
DIIS solution               ....       0.098 sec  (  0.1%)
SOSCF solution              ....       0.078 sec  (  0.1%)
Grid generation             ....       2.738 sec  (  4.0%)

Maximum memory used throughout the entire SCF-calculation: 43.4 MB


-------------------------------------------------------------------------------
                          DFT DISPERSION CORRECTION                            
                                                                               
                                 DFTD4 V2.5                                    
-------------------------------------------------------------------------------
The BP86 functional is recognized
Active option DFTDOPT                   ...         5   

Starting D4
-------------------------   ----------------
Dispersion correction           -0.019008960
-------------------------   ----------------


-------------------------   --------------------
FINAL SINGLE POINT ENERGY      -362.861420988274
-------------------------   --------------------

------------------------------------------------------------------------------
                         ORCA SCF GRADIENT CALCULATION
------------------------------------------------------------------------------

Gradient of the Kohn-Sham DFT energy:
Kohn-Sham wavefunction type      ... RKS
Hartree-Fock exchange scaling    ...    0.000
Number of operators              ...    1
Number of atoms                  ...   15
Basis set dimensions             ...  147
Integral neglect threshold       ... 2.5e-11
Integral primitive cutoff        ... 2.5e-12
SHARK Integral package           ... ON

Nuc. rep. gradient       (SHARK) ... done (  0.0 sec)
HCore & Overlap gradient (SHARK) ... done (  0.4 sec)
RI-J gradient            (SHARK) ... done (  3.8 sec)
Exchange-correlation gradient    ... done
Dispersion correction            ... Starting D4


------------------- 
Dispersion Gradient 
------------------- 
   1  :   -0.000035035    0.000270451   -0.000003427
   2  :   -0.000304821    0.000115210    0.000004829
   3  :   -0.000259862   -0.000260034    0.000000601
   4  :    0.000036502   -0.000313254   -0.000000211
   5  :    0.000307552   -0.000202972    0.000000667
   6  :    0.000264930    0.000195301    0.000004692
   7  :   -0.000143749    0.000040389    0.000002555
   8  :   -0.000117629   -0.000091368    0.000000379
   9  :    0.000139026   -0.000054370    0.000000518
  10  :    0.000128891    0.000075051    0.000002533
  11  :   -0.000069795    0.000558855    0.000041531
  12  :   -0.000051662    0.000120068   -0.000027472
  13  :    0.000020520    0.000129246   -0.000027502
  14  :    0.000067784   -0.000483214    0.000000458
  15  :    0.000017346   -0.000099359   -0.000000151

  |G| =    0.001160113

done

------------------
CARTESIAN GRADIENT
------------------

   1   C   :   -0.000830617    0.006650665    0.003138164
   2   C   :   -0.000113303   -0.000327278    0.000844329
   3   C   :    0.001544164    0.000235770   -0.000118623
   4   C   :   -0.002200474    0.009873240   -0.000203916
   5   C   :   -0.001388749   -0.000308492   -0.000131833
   6   C   :    0.000058795   -0.000156884    0.000871027
   7   H   :    0.005923064   -0.002773982    0.000130468
   8   H   :    0.005089224    0.004334810   -0.000026494
   9   H   :   -0.006132034    0.002476413   -0.000027069
  10   H   :   -0.005090961   -0.004081669    0.000144271
  11   N   :    0.009073794   -0.072634945    0.037119637
  12   H   :   -0.037905129    0.024745592   -0.020831994
  13   H   :    0.030593340    0.033442809   -0.020897474
  14   O   :    0.007186906   -0.001733195    0.000027131
  15   H   :   -0.005808019    0.000257146   -0.000037625

Difference to translation invariance:
           :    0.0000000000    0.0000000000    0.0000000000

Difference to rotation invariance:
           :    0.0000020143    0.0000180220    0.0001948774

Norm of the cartesian gradient     ...    0.1101624057
RMS gradient                       ...    0.0164220418
MAX gradient                       ...    0.0726349450

-------
TIMINGS
-------

Total SCF gradient time            ...       15.333 sec

One electron gradient       ....       0.362 sec  (  2.4%)
RI-J Coulomb gradient       ....       3.846 sec  ( 25.1%)
XC gradient                 ....      10.645 sec  ( 69.4%)

Maximum memory used throughout the entire SCFGRAD-calculation: 46.5 MB
------------------------------------------------------------------------------
                         ORCA GEOMETRY RELAXATION STEP
------------------------------------------------------------------------------

Reading the OPT-File                    .... done
Getting information on internals        .... done
Copying old internal coords+grads       .... done
Making the new internal coordinates     .... (new redundants).... done
Validating the new internal coordinates .... (new redundants).... done
Calculating the B-matrix                .... done
Calculating the G,G- and P matrices     .... done
Transforming gradient to internals      .... done
Projecting the internal gradient        .... done
Number of atoms                         ....  15
Number of internal coordinates          ....  67
Current Energy                          ....  -362.861420988 Eh
Current gradient norm                   ....     0.110162406 Eh/bohr
Maximum allowed component of the step   ....  0.300
Current trust radius                    ....  0.300
Evaluating the initial hessian          ....  (Almloef) done
Projecting the Hessian                  .... done
Forming the augmented Hessian           .... done
Diagonalizing the augmented Hessian     .... done
Last element of RFO vector              ....  0.974483972
Lowest eigenvalues of augmented Hessian:
 -0.017407806  0.023869292  0.024164814  0.024756520  0.024800609
Length of the computed step             ....  0.230334311
The final length of the internal step   ....  0.230334311
Converting the step to cartesian space:
 Initial RMS(Int)=    0.0281398148
Transforming coordinates:
 Iter   0:  RMS(Cart)=    0.0312289614 RMS(Int)=    1.0854180406
 Iter   1:  RMS(Cart)=    0.0007891872 RMS(Int)=    0.0004677771
 Iter   2:  RMS(Cart)=    0.0000439017 RMS(Int)=    0.0000301638
 Iter   3:  RMS(Cart)=    0.0000017821 RMS(Int)=    0.0000013874
 Iter   4:  RMS(Cart)=    0.0000000709 RMS(Int)=    0.0000000692
done
Storing new coordinates                 .... done

                                .--------------------.
          ----------------------|Geometry convergence|-------------------------
          Item                value                   Tolerance       Converged
          ---------------------------------------------------------------------
          RMS gradient        0.0093704687            0.0001000000      NO
          MAX gradient        0.0493560717            0.0003000000      NO
          RMS step            0.0281398148            0.0020000000      NO
          MAX step            0.1539775180            0.0040000000      NO
          ........................................................
          Max(Bonds)      0.0815      Max(Angles)    1.58
          Max(Dihed)        0.59      Max(Improp)    0.00
          ---------------------------------------------------------------------

The optimization has not yet converged - more geometry cycles are needed


    ---------------------------------------------------------------------------
                         Redundant Internal Coordinates
                            (Angstroem and degrees)

        Definition                    Value    dE/dq     Step     New-Value
    ----------------------------------------------------------------------------
     1. B(C   1,C   0)                1.4087 -0.006939  0.0061    1.4147   
     2. B(C   2,C   1)                1.3918 -0.007733  0.0064    1.3983   
     3. B(C   3,C   2)                1.3981 -0.007890  0.0067    1.4049   
     4. B(C   4,C   3)                1.3974 -0.008281  0.0071    1.4045   
     5. B(C   5,C   4)                1.3953 -0.007499  0.0063    1.4016   
     6. B(C   5,C   0)                1.4061 -0.006901  0.0060    1.4121   
     7. B(H   6,C   1)                1.0914 -0.006532  0.0092    1.1006   
     8. B(H   7,C   2)                1.0895 -0.006676  0.0093    1.0988   
     9. B(H   8,C   4)                1.0926 -0.006613  0.0094    1.1020   
    10. B(H   9,C   5)                1.0913 -0.006519  0.0092    1.1005   
    11. B(N  10,C   0)                1.3868 -0.014824  0.0134    1.4003   
    12. B(H  11,N  10)                1.1067  0.049275 -0.0813    1.0254   
    13. B(H  12,N  10)                1.1069  0.049356 -0.0815    1.0254   
    14. B(O  13,C   3)                1.3818  0.001578 -0.0014    1.3804   
    15. B(H  14,O  13)                0.9713 -0.005707  0.0059    0.9771   
    16. A(C   1,C   0,N  10)          120.90 -0.000135    0.04    120.94   
    17. A(C   5,C   0,N  10)          121.10 -0.000004    0.02    121.12   
    18. A(C   1,C   0,C   5)          117.78  0.000112   -0.02    117.76   
    19. A(C   0,C   1,H   6)          119.49  0.000506   -0.07    119.42   
    20. A(C   2,C   1,H   6)          119.28 -0.000132    0.03    119.30   
    21. A(C   0,C   1,C   2)          121.23 -0.000374    0.04    121.27   
    22. A(C   1,C   2,H   7)          120.51 -0.000448    0.06    120.58   
    23. A(C   3,C   2,H   7)          119.07  0.000279   -0.05    119.02   
    24. A(C   1,C   2,C   3)          120.42  0.000169   -0.02    120.40   
    25. A(C   2,C   3,C   4)          119.00  0.000318   -0.03    118.98   
    26. A(C   2,C   3,O  13)          117.87  0.000445   -0.07    117.81   
    27. A(C   4,C   3,O  13)          123.12 -0.000763    0.09    123.21   
    28. A(C   5,C   4,H   8)          119.40 -0.000034    0.00    119.40   
    29. A(C   3,C   4,H   8)          119.98 -0.000168    0.02    120.00   
    30. A(C   3,C   4,C   5)          120.63  0.000202   -0.02    120.61   
    31. A(C   4,C   5,H   9)          119.38 -0.000078    0.02    119.41   
    32. A(C   0,C   5,H   9)          119.68  0.000511   -0.07    119.61   
    33. A(C   0,C   5,C   4)          120.94 -0.000433    0.05    120.99   
    34. A(H  11,N  10,H  12)          102.71 -0.009461    1.55    104.26   
    35. A(C   0,N  10,H  12)          116.16  0.008643   -1.58    114.58   
    36. A(C   0,N  10,H  11)          116.06  0.008604   -1.57    114.49   
    37. A(C   3,O  13,H  14)          108.06  0.002068   -0.31    107.75   
    38. D(H   6,C   1,C   0,C   5)    179.31 -0.000285    0.39    179.70   
    39. D(C   2,C   1,C   0,C   5)     -0.71 -0.000426    0.58     -0.13   
    40. D(C   2,C   1,C   0,N  10)   -175.37 -0.000098    0.14   -175.23   
    41. D(H   6,C   1,C   0,N  10)      4.66  0.000043   -0.05      4.61   
    42. D(C   3,C   2,C   1,C   0)      0.27  0.000149   -0.20      0.06   
    43. D(C   3,C   2,C   1,H   6)   -179.76  0.000009   -0.01   -179.77   
    44. D(H   7,C   2,C   1,H   6)      0.42  0.000019   -0.02      0.40   
    45. D(H   7,C   2,C   1,C   0)   -179.55  0.000159   -0.21   -179.77   
    46. D(O  13,C   3,C   2,H   7)      0.13  0.000022   -0.03      0.09   
    47. D(O  13,C   3,C   2,C   1)   -179.70  0.000033   -0.04   -179.74   
    48. D(C   4,C   3,C   2,H   7)   -179.97  0.000122   -0.17   -180.14   
    49. D(C   4,C   3,C   2,C   1)      0.21  0.000133   -0.18      0.03   
    50. D(H   8,C   4,C   3,C   2)    179.97 -0.000127    0.17    180.14   
    51. D(C   5,C   4,C   3,O  13)    179.68 -0.000019    0.03    179.70   
    52. D(C   5,C   4,C   3,C   2)     -0.23 -0.000126    0.17     -0.06   
    53. D(H   8,C   4,C   3,O  13)     -0.13 -0.000020    0.03     -0.10   
    54. D(H   9,C   5,C   4,H   8)     -0.43 -0.000023    0.03     -0.40   
    55. D(C   0,C   5,C   4,H   8)    179.57 -0.000162    0.22    179.79   
    56. D(C   0,C   5,C   4,C   3)     -0.24 -0.000162    0.22     -0.02   
    57. D(H   9,C   5,C   0,N  10)     -4.67 -0.000044    0.05     -4.62   
    58. D(H   9,C   5,C   0,C   1)   -179.31  0.000292   -0.40   -179.70   
    59. D(H   9,C   5,C   4,C   3)    179.77 -0.000024    0.03    179.80   
    60. D(C   4,C   5,C   0,N  10)    175.34  0.000095   -0.14    175.19   
    61. D(C   4,C   5,C   0,C   1)      0.70  0.000432   -0.59      0.11   
    62. D(H  12,N  10,C   0,C   5)     32.37 -0.000600    0.02     32.38   
    63. D(H  12,N  10,C   0,C   1)   -153.16 -0.000934    0.48   -152.69   
    64. D(H  11,N  10,C   0,C   5)    153.23  0.000963   -0.51    152.71   
    65. D(H  11,N  10,C   0,C   1)    -32.30  0.000630   -0.06    -32.36   
    66. D(H  14,O  13,C   3,C   4)      0.16 -0.000076    0.10      0.26   
    67. D(H  14,O  13,C   3,C   2)   -179.94  0.000029   -0.04   -179.98   
    ----------------------------------------------------------------------------

         *************************************************************
         *                GEOMETRY OPTIMIZATION CYCLE   2            *
         *************************************************************
---------------------------------
CARTESIAN COORDINATES (ANGSTROEM)
---------------------------------
  C     -2.648738    1.269581   -0.018770
  C     -3.761320    0.395777   -0.011723
  C     -3.593983   -0.992398   -0.001889
  C     -2.305878   -1.553191    0.002570
  C     -1.191580   -0.698306   -0.002290
  C     -1.359681    0.693089   -0.012642
  H     -4.778644    0.815760   -0.011281
  H     -4.466294   -1.660556   -0.000363
  H     -0.173538   -1.120141   -0.001256
  H     -0.472734    1.344527   -0.012906
  N     -2.821785    2.656188    0.071334
  H     -3.681604    3.006168   -0.364183
  H     -2.075571    3.208124   -0.364522
  O     -2.202791   -2.929771    0.006689
  H     -1.252508   -3.157250    0.009792

----------------------------
CARTESIAN COORDINATES (A.U.)
----------------------------
  NO LB      ZA    FRAG     MASS         X           Y           Z
   0 C     6.0000    0    12.011   -5.005389    2.399161   -0.035469
   1 C     6.0000    0    12.011   -7.107866    0.747910   -0.022153
   2 C     6.0000    0    12.011   -6.791643   -1.875361   -0.003571
   3 C     6.0000    0    12.011   -4.357479   -2.935105    0.004857
   4 C     6.0000    0    12.011   -2.251760   -1.319607   -0.004327
   5 C     6.0000    0    12.011   -2.569426    1.309749   -0.023891
   6 H     1.0000    0     1.008   -9.030328    1.541562   -0.021317
   7 H     1.0000    0     1.008   -8.440073   -3.137996   -0.000686
   8 H     1.0000    0     1.008   -0.327939   -2.116761   -0.002374
   9 H     1.0000    0     1.008   -0.893337    2.540787   -0.024389
  10 N     7.0000    0    14.007   -5.332400    5.019469    0.134801
  11 H     1.0000    0     1.008   -6.957223    5.680834   -0.688205
  12 H     1.0000    0     1.008   -3.922262    6.062475   -0.688847
  13 O     8.0000    0    15.999   -4.162671   -5.536465    0.012640
  14 H     1.0000    0     1.008   -2.366898   -5.966338    0.018504

--------------------------------
INTERNAL COORDINATES (ANGSTROEM)
--------------------------------
 C      0   0   0     0.000000000000     0.00000000     0.00000000
 C      1   0   0     1.414716758818     0.00000000     0.00000000
 C      2   1   0     1.398259634214   121.27300368     0.00000000
 C      3   2   1     1.404891683363   120.40055002     0.06362421
 C      4   3   2     1.404461516734   118.97715588     0.03310225
 C      5   4   3     1.401551232277   120.60704863   359.94327761
 H      2   1   3     1.100605630316   119.42187184   179.83638581
 H      3   2   1     1.098801467432   120.57695733   180.23479212
 H      5   4   3     1.101978200174   119.99715798   180.14120225
 H      6   5   4     1.100475614748   119.40663723   179.79722879
 N      1   2   3     1.400265300383   120.93859294   184.77218459
 H     11   1   2     1.025401503550   114.47371975   327.65120292
 H     11   1   2     1.025396046475   114.56526050   207.30631527
 O      4   3   2     1.380440998916   117.80952929   180.26313230
 H     14   4   3     0.977135004391   107.74526473   180.02088290

---------------------------
INTERNAL COORDINATES (A.U.)
---------------------------
 C      0   0   0     0.000000000000     0.00000000     0.00000000
 C      1   0   0     2.673427231234     0.00000000     0.00000000
 C      2   1   0     2.642327772781   121.27300368     0.00000000
 C      3   2   1     2.654860529380   120.40055002     0.06362421
 C      4   3   2     2.654047632260   118.97715588     0.03310225
 C      5   4   3     2.648547991664   120.60704863   359.94327761
 H      2   1   3     2.079843222749   119.42187184   179.83638581
 H      3   2   1     2.076433848997   120.57695733   180.23479212
 H      5   4   3     2.082437003879   119.99715798   180.14120225
 H      6   5   4     2.079597528933   119.40663723   179.79722879
 N      1   2   3     2.646117932557   120.93859294   184.77218459
 H     11   1   2     1.937728019021   114.47371975   327.65120292
 H     11   1   2     1.937717706644   114.56526050   207.30631527
 O      4   3   2     2.608655431989   117.80952929   180.26313230
 H     14   4   3     1.846517554167   107.74526473   180.02088290

------------------------------------------------------------------------------
                   ___                                                        
                  /   \      - P O W E R E D   B Y -                         
                 /     \                                                     
                 |  |  |   _    _      __       _____    __    __             
                 |  |  |  | |  | |    /  \     |  _  \  |  |  /  |          
                  \  \/   | |  | |   /    \    | | | |  |  | /  /          
                 / \  \   | |__| |  /  /\  \   | |_| |  |  |/  /          
                |  |  |   |  __  | /  /__\  \  |    /   |      \           
                |  |  |   | |  | | |   __   |  |    \   |  |\   \          
                \     /   | |  | | |  |  |  |  | |\  \  |  | \   \       
                 \___/    |_|  |_| |__|  |__|  |_| \__\ |__|  \__/        
                                                                              
                      - O R C A' S   B I G   F R I E N D -                    
                                      &                                       
                       - I N T E G R A L  F E E D E R -                       
                                                                              
 v1 FN, 2020, v2 2021                                                         
[...]
      9       0.037527   0.043780  -0.273757  -0.150776   0.038650  -0.007041
     10       0.197509  -0.079659  -0.044853  -0.024896  -0.221439  -0.029354
     11      -0.000356   0.000359  -0.000202  -0.000048   0.001370  -0.000167
     12      -0.038000   0.059032   0.101444   0.050904   0.093861   0.010161
     13       0.138638   0.002736   0.232872  -0.152728   0.136012   0.032867
     14      -0.000979   0.000139  -0.000875   0.000797  -0.001004   0.000199
     15      -0.025678  -0.029005   0.159758   0.004131  -0.126832  -0.000873
     16      -0.092964   0.083170  -0.200539   0.177981   0.078889  -0.015129
     17      -0.001744  -0.000461  -0.001251  -0.001153  -0.000982   0.001292
     18       0.248259   0.131957  -0.044611   0.229189  -0.129126   0.009993
     19       0.419579   0.433004  -0.155499   0.164790  -0.415827   0.026535
     20      -0.003559  -0.007897   0.001884  -0.002898   0.005035  -0.001982
     21      -0.186138  -0.214969  -0.003803   0.320633   0.172779   0.027540
     22       0.425829   0.251725  -0.001124  -0.210389  -0.329983  -0.016473
     23      -0.002903  -0.000780  -0.001527   0.001786   0.001736  -0.001183
     24      -0.215403  -0.072467  -0.031288   0.217817  -0.114143  -0.016251
     25      -0.245871  -0.355361  -0.093297   0.206962  -0.424938  -0.035330
     26       0.000397   0.002248   0.001894  -0.001965   0.002008  -0.000725
     27       0.053936   0.285167  -0.038697   0.317604   0.179786  -0.014611
     28      -0.238092  -0.334491   0.074523  -0.220538  -0.376268   0.008237
     29       0.007437   0.004899  -0.000763   0.004628   0.005110  -0.002109
     30       0.010038   0.042183   0.042425   0.060828  -0.013298  -0.012581
     31       0.137355  -0.043812   0.005173   0.017294   0.043174   0.089070
     32      -0.008917   0.003495  -0.000834  -0.001175  -0.005053  -0.020632
     33      -0.017286  -0.017030  -0.035897  -0.013901   0.044214  -0.343748
     34       0.100771  -0.279996  -0.308012  -0.237577   0.227624  -0.554700
     35      -0.002668  -0.051836  -0.083816  -0.052397   0.006494   0.242333
     36      -0.108101  -0.044505  -0.110348  -0.090758  -0.075944   0.473832
     37       0.376551   0.093850   0.294660   0.278490   0.141253  -0.465865
     38       0.058977   0.028817   0.091215   0.057999  -0.010089   0.239297
     39      -0.009412  -0.039954   0.035817   0.052028  -0.017044   0.000168
     40      -0.113690   0.020229   0.037448   0.025454   0.048182   0.005711
     41       0.000301  -0.000242   0.000129   0.000055  -0.000309   0.000083
     42       0.055920   0.073140  -0.126236  -0.074865   0.018529  -0.001505
     43       0.113257   0.458919  -0.556005  -0.433157   0.175531   0.000033
     44      -0.000266  -0.000723   0.000777   0.001094  -0.000123   0.000017
                 36         37         38         39         40         41    
      0       0.330278   0.067862   0.000280   0.001960   0.002872   0.001126
      1       0.079319  -0.245973  -0.001461   0.003221  -0.003304   0.001498
      2       0.002976  -0.004315   0.000035  -0.000062   0.000066  -0.000019
      3      -0.181792   0.027655   0.003306  -0.076575   0.006963  -0.020849
      4      -0.150384   0.296604  -0.000935   0.030897  -0.001826   0.011711
      5       0.000356  -0.000448  -0.000001   0.000079   0.000000   0.000002
      6       0.205503   0.145465  -0.000973   0.016730  -0.004323  -0.067015
      7      -0.029408  -0.287322   0.000512   0.009642  -0.003488  -0.051610
      8       0.000468   0.001290  -0.000007   0.000017   0.000002   0.000035
      9      -0.381280  -0.074158  -0.001398   0.000344   0.001965   0.003202
     10      -0.044512   0.220281  -0.004058   0.000596   0.002282  -0.003154
     11      -0.000102  -0.000762   0.000010   0.000003  -0.000014   0.000016
     12       0.190410  -0.028361   0.070988  -0.000517  -0.036714   0.001833
     13       0.128286  -0.282161  -0.027564   0.000299   0.017385  -0.000126
     14      -0.000813   0.001218  -0.000048  -0.000001  -0.000006  -0.000006
     15      -0.178690  -0.138931  -0.030603  -0.007170  -0.062194   0.002826
     16       0.033033   0.286011  -0.019585  -0.006276  -0.046792   0.001888
     17      -0.000434  -0.000579  -0.000015  -0.000006   0.000010  -0.000003
     18      -0.012836  -0.191342  -0.038948   0.887906  -0.079411   0.229392
     19       0.282325  -0.233522   0.015298  -0.362796   0.031045  -0.096453
     20      -0.001959   0.000487   0.000055  -0.001599   0.000084  -0.000351
     21       0.041715  -0.241507   0.008696  -0.198348   0.052358   0.767395
     22       0.218407   0.221117   0.004559  -0.147704   0.040377   0.582749
     23      -0.001417  -0.003249  -0.000007  -0.000045  -0.000030  -0.000206
     24       0.056983   0.173201  -0.825780   0.005126   0.409102  -0.018907
     25      -0.223151   0.222545   0.334581  -0.002221  -0.169046   0.007071
     26       0.002206  -0.002770   0.000636   0.000035  -0.000216   0.000011
     27      -0.015300   0.236840   0.359993   0.085865   0.715174  -0.030430
     28      -0.203246  -0.230082   0.259661   0.064078   0.522550  -0.021813
     29       0.002394   0.001054   0.000389   0.000135   0.000632  -0.000002
     30      -0.045238  -0.014496   0.000065  -0.000251  -0.000362  -0.000195
     31      -0.029192   0.073358   0.000005  -0.000199   0.000215  -0.000183
     32       0.004375  -0.013411  -0.000032  -0.000012   0.000032  -0.000056
     33       0.081422  -0.131867   0.000639  -0.000003   0.001020   0.000560
     34       0.313970  -0.108090   0.000764  -0.005100   0.002748  -0.001333
     35       0.006154   0.120716   0.000192   0.001844   0.000155   0.000860
     36      -0.011169   0.168849  -0.001144   0.001518  -0.001122   0.000319
     37      -0.140109  -0.115511   0.002568  -0.001203   0.004690  -0.001159
     38      -0.099316   0.110269  -0.000484  -0.000566  -0.001776   0.000163
     39       0.047826   0.013133   0.000392  -0.000063  -0.000440  -0.000396
     40       0.024449  -0.031714   0.000407   0.000024  -0.000386   0.000342
     41       0.000090   0.000163   0.000005   0.000001  -0.000002  -0.000001
     42      -0.085746  -0.015620  -0.006275  -0.000347   0.004365   0.000534
     43      -0.425240  -0.122803   0.008660   0.000004  -0.003315   0.002217
     44       0.000493   0.000111  -0.000118  -0.000018   0.000048   0.000008
                 42         43         44    
      0      -0.000206   0.001571  -0.000021
      1       0.001617   0.000181  -0.000156
      2       0.002077   0.000001  -0.000033
      3       0.000108  -0.000569   0.000192
      4       0.000634   0.000156   0.000089
      5      -0.000033  -0.000227  -0.000002
      6      -0.000097   0.000084  -0.000775
      7      -0.000160  -0.000173   0.000136
      8      -0.000217   0.000007  -0.000006
      9      -0.000017  -0.000147   0.003008
     10       0.000020  -0.000018   0.000546
     11      -0.000076   0.000002   0.000011
     12       0.000119   0.000037  -0.001344
     13      -0.000108   0.000185   0.001058
     14      -0.000227  -0.000004  -0.000000
     15      -0.000261  -0.000511   0.000070
     16       0.000573  -0.000273  -0.000072
     17      -0.000027   0.000228  -0.000003
     18       0.000498   0.000947  -0.000296
     19      -0.001561  -0.002356  -0.000381
     20       0.001994   0.000849   0.000014
     21       0.000558   0.000095  -0.000297
     22       0.000111   0.000310   0.000564
     23       0.000218   0.000118   0.000003
     24      -0.000368   0.000170   0.006464
     25      -0.000125  -0.000253  -0.005888
     26       0.000196  -0.000133   0.000009
     27      -0.000030   0.000326   0.000443
     28      -0.001561   0.002459   0.000851
     29       0.002071  -0.000855  -0.000007
     30       0.005338   0.081317  -0.000035
     31      -0.043013   0.010149   0.000212
     32       0.035707   0.000048   0.000043
     33      -0.621295  -0.605141   0.000876
     34       0.211097   0.220847  -0.000214
     35      -0.259745  -0.286451  -0.000073
     36       0.550723  -0.531970  -0.000649
     37       0.357909  -0.362757  -0.000380
     38      -0.259599   0.285759  -0.000129
     39       0.000064   0.000011   0.059695
     40       0.000053  -0.000001  -0.016599
     41       0.000048  -0.000007   0.000381
     42      -0.001066  -0.000104  -0.966991
     43       0.000283   0.000043   0.246902
     44       0.000082   0.000080  -0.006085


-----------
IR SPECTRUM
-----------

 Mode   freq       eps      Int      T**2         TX        TY        TZ
       cm**-1   L/(mol*cm) km/mol    a.u.
----------------------------------------------------------------------------
  6:    145.31   0.000580    2.93  0.001245  (-0.001625  0.018839  0.029787)
  7:    237.28   0.003752   18.96  0.004935  ( 0.069809  0.007715  0.001445)
  8:    317.47   0.000796    4.02  0.000782  ( 0.008881  0.026495  0.001190)
  9:    329.16   0.018492   93.45  0.017531  ( 0.001153  0.001721 -0.132389)
 10:    349.77   0.001521    7.68  0.001357  ( 0.002873 -0.022712 -0.028856)
 11:    405.81   0.000356    1.80  0.000273  ( 0.008400 -0.000554 -0.014231)
 12:    418.44   0.001264    6.39  0.000943  (-0.006702  0.029965 -0.000230)
 13:    455.72   0.000067    0.34  0.000046  (-0.002717 -0.004496  0.004315)
 14:    497.27   0.006566   33.18  0.004120  (-0.003186  0.026635  0.058315)
 15:    635.18   0.000288    1.45  0.000141  ( 0.002030 -0.011555 -0.001921)
 16:    643.85   0.056015  283.08  0.027149  ( 0.019194 -0.149969 -0.065502)
 17:    694.71   0.007363   37.21  0.003307  ( 0.006870 -0.054077 -0.018329)
 18:    755.29   0.000347    1.75  0.000143  ( 0.001017  0.011933 -0.000008)
 19:    764.83   0.001997   10.09  0.000815  ( 0.000805  0.006042  0.027888)
 20:    799.02   0.010784   54.50  0.004212  ( 0.003340 -0.017445 -0.062421)
 21:    841.65   0.000889    4.49  0.000330  (-0.003939  0.016587  0.006255)
 22:    869.79   0.000125    0.63  0.000045  (-0.000726  0.006492  0.001486)
 23:    902.68   0.000034    0.17  0.000012  ( 0.000449 -0.001763  0.002920)
 24:    985.60   0.000051    0.26  0.000016  (-0.000325  0.003396  0.002149)
 25:   1054.41   0.002165   10.94  0.000641  ( 0.022091 -0.012362  0.000139)
 26:   1109.49   0.001723    8.71  0.000485  ( 0.021857 -0.002612  0.000081)
 27:   1142.01   0.000210    1.06  0.000057  (-0.004039  0.006397  0.000453)
 28:   1162.17   0.027141  137.16  0.007288  ( 0.001235 -0.085355  0.000884)
 29:   1248.04   0.019883  100.48  0.004972  (-0.012810  0.069324 -0.001322)
 30:   1286.19   0.001022    5.16  0.000248  ( 0.001023  0.015709  0.000211)
 31:   1299.91   0.003364   17.00  0.000808  ( 0.000611  0.028408 -0.000372)
 32:   1381.79   0.006333   32.00  0.001430  ( 0.032044 -0.020083  0.000264)
 33:   1446.27   0.004460   22.54  0.000962  ( 0.002178 -0.030946  0.000186)
 34:   1506.78   0.038717  195.66  0.008019  ( 0.009973 -0.088988 -0.000474)
 35:   1586.90   0.010631   53.73  0.002091  ( 0.005052 -0.041454  0.018619)
 36:   1599.09   0.000364    1.84  0.000071  (-0.001796 -0.008119 -0.001400)
 37:   1638.55   0.000501    2.53  0.000095  ( 0.000223 -0.009327  0.002891)
 38:   3076.57   0.004901   24.77  0.000497  ( 0.008847 -0.020464  0.000163)
 39:   3091.80   0.003416   17.26  0.000345  (-0.014345  0.011788 -0.000064)
 40:   3099.06   0.003323   16.79  0.000335  (-0.016302 -0.008298 -0.000006)
 41:   3126.04   0.001458    7.37  0.000146  (-0.010110 -0.006583  0.000074)
 42:   3422.66   0.000702    3.55  0.000064  (-0.000836  0.004973 -0.006214)
 43:   3520.91   0.001130    5.71  0.000100  (-0.009937 -0.001190 -0.000045)
 44:   3655.29   0.008077   40.82  0.000690  (-0.019196  0.017917 -0.000248)

* The epsilon (eps) is given for a Dirac delta lineshape.
** The dipole moment derivative (T) already includes vibrational overlap.

The first frequency considered to be a vibration is 6
The total number of vibrations considered is 39


--------------------------
THERMOCHEMISTRY AT 298.15K
--------------------------

Temperature         ... 298.15 K
Pressure            ... 1.00 atm
Total Mass          ... 109.13 AMU

Throughout the following assumptions are being made:
  (1) The electronic state is orbitally nondegenerate
  (2) There are no thermally accessible electronically excited states
  (3) Hindered rotations indicated by low frequency modes are not
      treated as such but are treated as vibrations and this may
      cause some error
  (4) All equations used are the standard statistical mechanics
      equations for an ideal gas
  (5) All vibrations are strictly harmonic

freq.     145.31  E(vib)   ...       0.41 
freq.     237.28  E(vib)   ...       0.32 
freq.     317.47  E(vib)   ...       0.25 
freq.     329.16  E(vib)   ...       0.24 
freq.     349.77  E(vib)   ...       0.23 
freq.     405.81  E(vib)   ...       0.19 
freq.     418.44  E(vib)   ...       0.18 
freq.     455.72  E(vib)   ...       0.16 
freq.     497.27  E(vib)   ...       0.14 
freq.     635.18  E(vib)   ...       0.09 
freq.     643.85  E(vib)   ...       0.09 
freq.     694.71  E(vib)   ...       0.07 
freq.     755.29  E(vib)   ...       0.06 
freq.     764.83  E(vib)   ...       0.06 
freq.     799.02  E(vib)   ...       0.05 
freq.     841.65  E(vib)   ...       0.04 
freq.     869.79  E(vib)   ...       0.04 
freq.     902.68  E(vib)   ...       0.03 
freq.     985.60  E(vib)   ...       0.02 
freq.    1054.41  E(vib)   ...       0.02 
freq.    1109.49  E(vib)   ...       0.02 
freq.    1142.01  E(vib)   ...       0.01 
freq.    1162.17  E(vib)   ...       0.01 
freq.    1248.04  E(vib)   ...       0.01 
freq.    1286.19  E(vib)   ...       0.01 
freq.    1299.91  E(vib)   ...       0.01 
freq.    1381.79  E(vib)   ...       0.01 
freq.    1446.27  E(vib)   ...       0.00 
freq.    1506.78  E(vib)   ...       0.00 
freq.    1586.90  E(vib)   ...       0.00 
freq.    1599.09  E(vib)   ...       0.00 
freq.    1638.55  E(vib)   ...       0.00 
freq.    3076.57  E(vib)   ...       0.00 
freq.    3091.80  E(vib)   ...       0.00 
freq.    3099.06  E(vib)   ...       0.00 
freq.    3126.04  E(vib)   ...       0.00 
freq.    3422.66  E(vib)   ...       0.00 
freq.    3520.91  E(vib)   ...       0.00 
freq.    3655.29  E(vib)   ...       0.00 

------------
INNER ENERGY
------------

The inner energy is: U= E(el) + E(ZPE) + E(vib) + E(rot) + E(trans)
    E(el)   - is the total energy from the electronic structure calculation
              = E(kin-el) + E(nuc-el) + E(el-el) + E(nuc-nuc)
    E(ZPE)  - the the zero temperature vibrational energy from the frequency calculation
    E(vib)  - the the finite temperature correction to E(ZPE) due to population
              of excited vibrational states
    E(rot)  - is the rotational thermal energy
    E(trans)- is the translational thermal energy

Summary of contributions to the inner energy U:
Electronic energy                ...   -362.87167629 Eh
Zero point energy                ...      0.11733196 Eh      73.63 kcal/mol
Thermal vibrational correction   ...      0.00441608 Eh       2.77 kcal/mol
Thermal rotational correction    ...      0.00141627 Eh       0.89 kcal/mol
Thermal translational correction ...      0.00141627 Eh       0.89 kcal/mol
-----------------------------------------------------------------------
Total thermal energy                   -362.74709571 Eh


Summary of corrections to the electronic energy:
(perhaps to be used in another calculation)
Total thermal correction                  0.00724862 Eh       4.55 kcal/mol
Non-thermal (ZPE) correction              0.11733196 Eh      73.63 kcal/mol
-----------------------------------------------------------------------
Total correction                          0.12458058 Eh      78.18 kcal/mol


--------
ENTHALPY
--------

The enthalpy is H = U + kB*T
                kB is Boltzmann's constant
Total free energy                 ...   -362.74709571 Eh 
Thermal Enthalpy correction       ...      0.00094421 Eh       0.59 kcal/mol
-----------------------------------------------------------------------
Total Enthalpy                    ...   -362.74615150 Eh


Note: Only C1 symmetry has been detected, increase convergence thresholds 
      if your molecule has a higher symmetry. Symmetry factor of 1.0 is   
      used for the rotational entropy correction. 
 

Note: Rotational entropy computed according to Herzberg 
Infrared and Raman Spectra, Chapter V,1, Van Nostrand Reinhold, 1945 
Point Group:  C1, Symmetry Number:   1  
Rotational constants in cm-1:     0.183364     0.048479     0.038397 

Vibrational entropy computed according to the QRRHO of S. Grimme
Chem.Eur.J. 2012 18 9955


-------
ENTROPY
-------

The entropy contributions are T*S = T*(S(el)+S(vib)+S(rot)+S(trans))
     S(el)   - electronic entropy
     S(vib)  - vibrational entropy
     S(rot)  - rotational entropy
     S(trans)- translational entropy
The entropies will be listed as multiplied by the temperature to get
units of energy

Electronic entropy                ...      0.00000000 Eh      0.00 kcal/mol
Vibrational entropy               ...      0.00680120 Eh      4.27 kcal/mol
Rotational entropy                ...      0.01327937 Eh      8.33 kcal/mol
Translational entropy             ...      0.01899496 Eh     11.92 kcal/mol
-----------------------------------------------------------------------
Final entropy term                ...      0.03907552 Eh     24.52 kcal/mol

In case the symmetry of your molecule has not been determined correctly
or in case you have a reason to use a different symmetry number we print 
out the resulting rotational entropy values for sn=1,12 :
 --------------------------------------------------------
|  sn= 1 | S(rot)=       0.01327937 Eh      8.33 kcal/mol|
|  sn= 2 | S(rot)=       0.01262491 Eh      7.92 kcal/mol|
|  sn= 3 | S(rot)=       0.01224208 Eh      7.68 kcal/mol|
|  sn= 4 | S(rot)=       0.01197045 Eh      7.51 kcal/mol|
|  sn= 5 | S(rot)=       0.01175976 Eh      7.38 kcal/mol|
|  sn= 6 | S(rot)=       0.01158762 Eh      7.27 kcal/mol|
|  sn= 7 | S(rot)=       0.01144207 Eh      7.18 kcal/mol|
|  sn= 8 | S(rot)=       0.01131600 Eh      7.10 kcal/mol|
|  sn= 9 | S(rot)=       0.01120479 Eh      7.03 kcal/mol|
|  sn=10 | S(rot)=       0.01110531 Eh      6.97 kcal/mol|
|  sn=11 | S(rot)=       0.01101532 Eh      6.91 kcal/mol|
|  sn=12 | S(rot)=       0.01093316 Eh      6.86 kcal/mol|
 --------------------------------------------------------


-------------------
GIBBS FREE ENERGY
-------------------

The Gibbs free energy is G = H - T*S

Total enthalpy                    ...   -362.74615150 Eh 
Total entropy correction          ...     -0.03907552 Eh    -24.52 kcal/mol
-----------------------------------------------------------------------
Final Gibbs free energy         ...   -362.78522702 Eh

For completeness - the Gibbs free energy minus the electronic energy
G-E(el)                           ...      0.08644927 Eh     54.25 kcal/mol


Timings for individual modules:

Sum of individual times         ...      872.578 sec (=  14.543 min)
GTO integral calculation        ...        5.216 sec (=   0.087 min)   0.6 %
SCF iterations                  ...      246.299 sec (=   4.105 min)  28.2 %
SCF Gradient evaluation         ...       80.733 sec (=   1.346 min)   9.3 %
Geometry relaxation             ...        0.841 sec (=   0.014 min)   0.1 %
Analytical frequency calculation...      539.489 sec (=   8.991 min)  61.8 %
                             ****ORCA TERMINATED NORMALLY****
TOTAL RUN TIME: 0 days 0 hours 14 minutes 36 seconds 757 msec
