
                                 *****************
                                 * O   R   C   A *
                                 *****************

                                            #,                                       
                                            ###                                      
                                            ####                                     
                                            #####                                    
                                            ######                                   
                                           ########,                                 
                                     ,,################,,,,,                         
                               ,,#################################,,                 
                          ,,##########################################,,             
                       ,#########################################, ''#####,          
                    ,#############################################,,   '####,        
                  ,##################################################,,,,####,       
                ,###########''''           ''''###############################       
              ,#####''   ,,,,##########,,,,          '''####'''          '####       
            ,##' ,,,,###########################,,,                        '##       
           ' ,,###''''                  '''############,,,                           
         ,,##''                                '''############,,,,        ,,,,,,###''
      ,#''                                            '''#######################'''  
     '                                                          ''''####''''         
             ,#######,   #######,   ,#######,      ##                                
            ,#'     '#,  ##    ##  ,#'     '#,    #''#        ######   ,####,        
            ##       ##  ##   ,#'  ##            #'  '#       #        #'  '#        
            ##       ##  #######   ##           ,######,      #####,   #    #        
            '#,     ,#'  ##    ##  '#,     ,#' ,#      #,         ##   #,  ,#        
             '#######'   ##     ##  '#######'  #'      '#     #####' # '####'        



                  #######################################################
                  #                        -***-                        #
                  #          Department of theory and spectroscopy      #
                  #    Directorship and core code : Frank Neese         #
                  #        Max Planck Institute fuer Kohlenforschung    #
                  #                Kaiser Wilhelm Platz 1               #
                  #                 D-45470 Muelheim/Ruhr               #
                  #                      Germany                        #
                  #                                                     #
                  #                  All rights reserved                #
                  #                        -***-                        #
                  #######################################################



                         Program Version 5.0.4 -  RELEASE  -

 With contributions from (in alphabetic order):
   Daniel Aravena         : Magnetic Suceptibility
   Michael Atanasov       : Ab Initio Ligand Field Theory (pilot matlab implementation)
   Alexander A. Auer      : GIAO ZORA, VPT2 properties, NMR spectrum
   Ute Becker             : Parallelization
   Giovanni Bistoni       : ED, misc. LED, open-shell LED, HFLD
   Martin Brehm           : Molecular dynamics
   Dmytro Bykov           : SCF Hessian
   Vijay G. Chilkuri      : MRCI spin determinant printing, contributions to CSF-ICE
   Dipayan Datta          : RHF DLPNO-CCSD density
   Achintya Kumar Dutta   : EOM-CC, STEOM-CC
   Dmitry Ganyushin       : Spin-Orbit,Spin-Spin,Magnetic field MRCI
   Miquel Garcia          : C-PCM and meta-GGA Hessian, CC/C-PCM, Gaussian charge scheme
   Yang Guo               : DLPNO-NEVPT2, F12-NEVPT2, CIM, IAO-localization
   Andreas Hansen         : Spin unrestricted coupled pair/coupled cluster methods
   Benjamin Helmich-Paris : MC-RPA, TRAH-SCF, COSX integrals
   Lee Huntington         : MR-EOM, pCC
   Robert Izsak           : Overlap fitted RIJCOSX, COSX-SCS-MP3, EOM
   Marcus Kettner         : VPT2
   Christian Kollmar      : KDIIS, OOCD, Brueckner-CCSD(T), CCSD density, CASPT2, CASPT2-K
   Simone Kossmann        : Meta GGA functionals, TD-DFT gradient, OOMP2, MP2 Hessian
   Martin Krupicka        : Initial AUTO-CI
   Lucas Lang             : DCDCAS
   Marvin Lechner         : AUTO-CI (C++ implementation), FIC-MRCC
   Dagmar Lenk            : GEPOL surface, SMD
   Dimitrios Liakos       : Extrapolation schemes; Compound Job, initial MDCI parallelization
   Dimitrios Manganas     : Further ROCIS development; embedding schemes
   Dimitrios Pantazis     : SARC Basis sets
   Anastasios Papadopoulos: AUTO-CI, single reference methods and gradients
   Taras Petrenko         : DFT Hessian,TD-DFT gradient, ASA, ECA, R-Raman, ABS, FL, XAS/XES, NRVS
   Peter Pinski           : DLPNO-MP2, DLPNO-MP2 Gradient
   Christoph Reimann      : Effective Core Potentials
   Marius Retegan         : Local ZFS, SOC
   Christoph Riplinger    : Optimizer, TS searches, QM/MM, DLPNO-CCSD(T), (RO)-DLPNO pert. Triples
   Tobias Risthaus        : Range-separated hybrids, TD-DFT gradient, RPA, STAB
   Michael Roemelt        : Original ROCIS implementation
   Masaaki Saitow         : Open-shell DLPNO-CCSD energy and density
   Barbara Sandhoefer     : DKH picture change effects
   Avijit Sen             : IP-ROCIS
   Kantharuban Sivalingam : CASSCF convergence, NEVPT2, FIC-MRCI
   Bernardo de Souza      : ESD, SOC TD-DFT
   Georgi Stoychev        : AutoAux, RI-MP2 NMR, DLPNO-MP2 response
   Willem Van den Heuvel  : Paramagnetic NMR
   Boris Wezisla          : Elementary symmetry handling
   Frank Wennmohs         : Technical directorship


 We gratefully acknowledge several colleagues who have allowed us to
 interface, adapt or use parts of their codes:
   Stefan Grimme, W. Hujo, H. Kruse, P. Pracht,  : VdW corrections, initial TS optimization,
                  C. Bannwarth, S. Ehlert          DFT functionals, gCP, sTDA/sTD-DF
   Ed Valeev, F. Pavosevic, A. Kumar             : LibInt (2-el integral package), F12 methods
   Garnet Chan, S. Sharma, J. Yang, R. Olivares  : DMRG
   Ulf Ekstrom                                   : XCFun DFT Library
   Mihaly Kallay                                 : mrcc  (arbitrary order and MRCC methods)
   Jiri Pittner, Ondrej Demel                    : Mk-CCSD
   Frank Weinhold                                : gennbo (NPA and NBO analysis)
   Christopher J. Cramer and Donald G. Truhlar   : smd solvation model
   Lars Goerigk                                  : TD-DFT with DH, B97 family of functionals
   V. Asgeirsson, H. Jonsson                     : NEB implementation
   FAccTs GmbH                                   : IRC, NEB, NEB-TS, DLPNO-Multilevel, CI-OPT
                                                   MM, QMMM, 2- and 3-layer-ONIOM, Crystal-QMMM,
                                                   LR-CPCM, SF, NACMEs, symmetry and pop. for TD-DFT,
                                                   nearIR, NL-DFT gradient (VV10), updates on ESD,
                                                   ML-optimized integration grids
   S Lehtola, MJT Oliveira, MAL Marques          : LibXC Library
   Liviu Ungur et al                             : ANISO software


 Your calculation uses the libint2 library for the computation of 2-el integrals
 For citations please refer to: http://libint.valeyev.net

 Your ORCA version has been built with support for libXC version: 5.1.0
 For citations please refer to: https://tddft.org/programs/libxc/

 This ORCA versions uses:
   CBLAS   interface :  Fast vector & matrix operations
   LAPACKE interface :  Fast linear algebra routines
   Shared memory     :  Shared parallel matrices


Your calculation utilizes the atom-pairwise dispersion correction
based on tight binding partial charges (D4)
Cite in your paper:
E.Caldeweyher, C.Bannwarth, S.Grimme, J.Chem.Phys., (2017), 147, 034112.
E.Caldeweyher, S.Ehlert, A.Hansen, H.Neugebauer, S.Grimme, J.Chem.Phys., (2018), in progress.
   

================================================================================

----- Orbital basis set information -----
Your calculation utilizes the basis: def2-SVP
   F. Weigend and R. Ahlrichs, Phys. Chem. Chem. Phys. 7, 3297 (2005).

----- AuxJ basis set information -----
Your calculation utilizes the auxiliary basis: def2/J
   F. Weigend, Phys. Chem. Chem. Phys. 8, 1057 (2006).

================================================================================
                                        WARNINGS
                       Please study these warnings very carefully!
================================================================================


WARNING: Geometry Optimization
  ===> : Switching off AutoStart
         For restart on a previous wavefunction, please use MOREAD

INFO   : the flag for use of the SHARK integral package has been found!



***************************************
The coordinates will be read from file: first_job.xyz
***************************************


Your calculation utilizes the atom-pairwise dispersion correction
based on tight binding partial charges (D4)
Cite in your paper:
E.Caldeweyher, C.Bannwarth, S.Grimme, J.Chem.Phys., (2017), 147, 034112.
E.Caldeweyher, S.Ehlert, A.Hansen, H.Neugebauer, S.Grimme, J.Chem.Phys., (2018), in progress.
   

================================================================================

----- Orbital basis set information -----
Your calculation utilizes the basis: def2-QZVP
   F. Weigend and R. Ahlrichs, Phys. Chem. Chem. Phys. 7, 3297 (2005).

----- AuxJ basis set information -----
Your calculation utilizes the auxiliary basis: def2/J
   F. Weigend, Phys. Chem. Chem. Phys. 8, 1057 (2006).

================================================================================
                                        WARNINGS
                       Please study these warnings very carefully!
================================================================================


INFO   : the flag for use of the SHARK integral package has been found!

================================================================================
                                       INPUT FILE
================================================================================
NAME = opt.inp
|  1> !B3LYP DEF2-SVP D4 OPT FREQ SOSCF
|  2> 
|  3> %Base "first_job"
|  4> 
|  5> * xyz 0 1
|  6>    C       -3.23673       -1.74319        0.00957
|  7>    C       -4.38981       -1.06987       -0.00700
|  8>    C       -5.68685       -1.77657        0.00496
|  9>    C       -6.84159       -1.09851       -0.01177
| 10>    C       -8.15627       -1.81531        0.00035
| 11>    H       -8.23904       -2.47050       -0.89248
| 12>    H       -8.98600       -1.07807       -0.01692
| 13>    H       -8.24304       -2.43254        0.91947
| 14>    F       -2.05676       -1.07019       -0.00195
| 15>    H       -3.22369       -2.82896        0.03229
| 16>    H       -4.36653        0.01644       -0.02966
| 17>    H       -5.70296       -2.86388        0.02768
| 18>    H       -6.83917       -0.01180       -0.03452
| 19> *
| 20> 
| 21> $new_job
| 22> 
| 23> !B3LYP DEF2-QZVP
| 24> 
| 25> %base "second_job"
| 26> 
| 27> %scf
| 28> convergence tight
| 29> end
| 30> 
| 31> * XYZfile 0 1 first_job.xyz
| 32> 
| 33>                          ****END OF INPUT****
================================================================================


                 $$$$$$$$$$$$$$$$$$$$$$$$$$$$$$$$$$$$$$$$$$$$$$ 
                 $ THERE ARE  2 JOBS TO BE PROCESSED THIS RUN $
                 $$$$$$$$$$$$$$$$$$$$$$$$$$$$$$$$$$$$$$$$$$$$$$ 




                 $$$$$$$$$$$$$$$$  JOB NUMBER  1 $$$$$$$$$$$$$$


                       *****************************
                       * Geometry Optimization Run *
                       *****************************

Geometry optimization settings:
Update method            Update   .... BFGS
Choice of coordinates    CoordSys .... Z-matrix Internals
Initial Hessian          InHess   .... Almoef's Model

Convergence Tolerances:
Energy Change            TolE     ....  5.0000e-06 Eh
Max. Gradient            TolMAXG  ....  3.0000e-04 Eh/bohr
RMS Gradient             TolRMSG  ....  1.0000e-04 Eh/bohr
Max. Displacement        TolMAXD  ....  4.0000e-03 bohr
RMS Displacement         TolRMSD  ....  2.0000e-03 bohr
Strict Convergence                ....  False
------------------------------------------------------------------------------
                        ORCA OPTIMIZATION COORDINATE SETUP
------------------------------------------------------------------------------

The optimization will be done in new redundant internal coordinates
Making redundant internal coordinates   ...  (new redundants) done
Evaluating the initial hessian          ...  (Almloef) done
Evaluating the coordinates              ...  done
Calculating the B-matrix                .... done
Calculating the G-matrix                .... done
Diagonalizing the G-matrix              .... done
Small eigenvalue found = 2.822e-02
The first mode is                       ....   15
The number of degrees of freedom        ....   33

    -----------------------------------------------------------------
                    Redundant Internal Coordinates


    -----------------------------------------------------------------
         Definition                    Initial Value    Approx d2E/dq
    -----------------------------------------------------------------
      1. B(C   1,C   0)                  1.3354         0.763639   
      2. B(C   2,C   1)                  1.4771         0.453676   
      3. B(C   3,C   2)                  1.3392         0.752972   
      4. B(C   4,C   3)                  1.4974         0.421038   
      5. B(H   5,C   4)                  1.1105         0.333944   
      6. B(H   6,C   4)                  1.1101         0.334495   
      7. B(H   7,C   4)                  1.1105         0.333937   
      8. B(F   8,C   0)                  1.3585         0.583848   
      9. B(H   9,C   0)                  1.0861         0.365315   
     10. B(H  10,C   1)                  1.0868         0.364364   
     11. B(H  11,C   2)                  1.0877         0.363200   
     12. B(H  12,C   3)                  1.0870         0.364156   
     13. A(F   8,C   0,H   9)          119.0139         0.346597   
     14. A(C   1,C   0,F   8)          120.0089         0.440932   
     15. A(C   1,C   0,H   9)          120.9773         0.366556   
     16. A(C   2,C   1,H  10)          119.8146         0.335553   
     17. A(C   0,C   1,H  10)          119.0619         0.366392   
     18. A(C   0,C   1,C   2)          121.1234         0.426041   
     19. A(C   1,C   2,H  11)          119.4359         0.335374   
     20. A(C   1,C   2,C   3)          120.9841         0.424970   
     21. A(C   3,C   2,H  11)          119.5800         0.365310   
     22. A(C   2,C   3,C   4)          120.9677         0.419340   
     23. A(C   4,C   3,H  12)          118.7312         0.331390   
     24. A(C   2,C   3,H  12)          120.3011         0.365475   
     25. A(C   3,C   4,H   7)          109.9589         0.326683   
     26. A(H   5,C   4,H   6)          108.8813         0.284139   
     27. A(C   3,C   4,H   6)          109.7667         0.326773   
     28. A(H   6,C   4,H   7)          108.8806         0.284138   
     29. A(H   5,C   4,H   7)          109.3698         0.284065   
     30. A(C   3,C   4,H   5)          109.9587         0.326685   
     31. D(H  10,C   1,C   0,H   9)   -179.9996         0.041735   
     32. D(H  10,C   1,C   0,F   8)     -0.0001         0.041735   
     33. D(C   2,C   1,C   0,H   9)      0.0000         0.041735   
     34. D(C   2,C   1,C   0,F   8)    179.9995         0.041735   
     35. D(C   3,C   2,C   1,H  10)      0.0024         0.014026   
     36. D(H  11,C   2,C   1,C   0)      0.0018         0.014026   
     37. D(C   3,C   2,C   1,C   0)   -179.9971         0.014026   
     38. D(H  11,C   2,C   1,H  10)   -179.9986         0.014026   
     39. D(H  12,C   3,C   2,H  11)   -179.9992         0.040465   
     40. D(H  12,C   3,C   2,C   1)     -0.0003         0.040465   
     41. D(C   4,C   3,C   2,H  11)      0.0004         0.040465   
     42. D(C   4,C   3,C   2,C   1)    179.9994         0.040465   
     43. D(H   6,C   4,C   3,C   2)   -179.9992         0.013107   
     44. D(H   5,C   4,C   3,H  12)    119.7592         0.013107   
     45. D(H   5,C   4,C   3,C   2)    -60.2405         0.013107   
     46. D(H   7,C   4,C   3,H  12)   -119.7575         0.013107   
     47. D(H   7,C   4,C   3,C   2)     60.2428         0.013107   
     48. D(H   6,C   4,C   3,H  12)      0.0005         0.013107   
    -----------------------------------------------------------------

Number of atoms                         .... 13
Number of degrees of freedom            .... 48

         *************************************************************
         *                GEOMETRY OPTIMIZATION CYCLE   1            *
         *************************************************************
---------------------------------
CARTESIAN COORDINATES (ANGSTROEM)
---------------------------------
  C     -3.236730   -1.743190    0.009570
  C     -4.389810   -1.069870   -0.007000
  C     -5.686850   -1.776570    0.004960
  C     -6.841590   -1.098510   -0.011770
  C     -8.156270   -1.815310    0.000350
  H     -8.239040   -2.470500   -0.892480
  H     -8.986000   -1.078070   -0.016920
  H     -8.243040   -2.432540    0.919470
  F     -2.056760   -1.070190   -0.001950
  H     -3.223690   -2.828960    0.032290
  H     -4.366530    0.016440   -0.029660
  H     -5.702960   -2.863880    0.027680
  H     -6.839170   -0.011800   -0.034520

----------------------------
CARTESIAN COORDINATES (A.U.)
----------------------------
  NO LB      ZA    FRAG     MASS         X           Y           Z
   0 C     6.0000    0    12.011   -6.116533   -3.294152    0.018085
   1 C     6.0000    0    12.011   -8.295539   -2.021761   -0.013228
   2 C     6.0000    0    12.011  -10.746589   -3.357231    0.009373
   3 C     6.0000    0    12.011  -12.928731   -2.075883   -0.022242
   4 C     6.0000    0    12.011  -15.413117   -3.430439    0.000661
   5 H     1.0000    0     1.008  -15.569529   -4.668568   -1.686543
   6 H     1.0000    0     1.008  -16.981079   -2.037257   -0.031974
   7 H     1.0000    0     1.008  -15.577088   -4.596834    1.737546
   8 F     9.0000    0    18.998   -3.886713   -2.022366   -0.003685
   9 H     1.0000    0     1.008   -6.091891   -5.345960    0.061019
  10 H     1.0000    0     1.008   -8.251546    0.031067   -0.056049
  11 H     1.0000    0     1.008  -10.777033   -5.411949    0.052308
  12 H     1.0000    0     1.008  -12.924158   -0.022299   -0.065233

--------------------------------
INTERNAL COORDINATES (ANGSTROEM)
--------------------------------
 C      0   0   0     0.000000000000     0.00000000     0.00000000
 C      1   0   0     1.335375555303     0.00000000     0.00000000
 C      2   1   0     1.477119051803   121.12344337     0.00000000
 C      3   2   1     1.339204885034   120.98407106   180.00286087
 C      4   3   2     1.497442031199   120.96765641   179.99942474
 H      5   4   3     1.110527000077   109.95867697   299.75952598
 H      5   4   3     1.110077899699   109.76667147   180.00079836
 H      5   4   3     1.110532971235   109.95892527    60.24278303
 F      1   2   3     1.358451659537   120.00886248   179.99947843
 H      1   2   3     1.086085969387   120.97726980     0.00000000
 H      2   1   3     1.086795680015   119.06191908   180.00042172
 H      3   2   1     1.087666661528   119.43588919     0.00000000
 H      4   3   2     1.086950800635   120.30114763     0.00000000

---------------------------
INTERNAL COORDINATES (A.U.)
---------------------------
 C      0   0   0     0.000000000000     0.00000000     0.00000000
 C      1   0   0     2.523494085455     0.00000000     0.00000000
 C      2   1   0     2.791350475105   121.12344337     0.00000000
 C      3   2   1     2.530730469925   120.98407106   180.00286087
 C      4   3   2     2.829755340388   120.96765641   179.99942474
 H      5   4   3     2.098591894471   109.95867697   299.75952598
 H      5   4   3     2.097743217749   109.76667147   180.00079836
 H      5   4   3     2.098603178324   109.95892527    60.24278303
 F      1   2   3     2.567101602697   120.00886248   179.99947843
 H      1   2   3     2.052405040036   120.97726980     0.00000000
 H      2   1   3     2.053746198758   119.06191908   180.00042172
 H      3   2   1     2.055392115285   119.43588919     0.00000000
 H      4   3   2     2.054039334246   120.30114763     0.00000000

---------------------
BASIS SET INFORMATION
---------------------
There are 3 groups of distinct atoms

 Group   1 Type C   : 7s4p1d contracted to 3s2p1d pattern {511/31/1}
 Group   2 Type H   : 4s1p contracted to 2s1p pattern {31/1}
 Group   3 Type F   : 7s4p1d contracted to 3s2p1d pattern {511/31/1}

Atom   0C    basis set group =>   1
Atom   1C    basis set group =>   1
Atom   2C    basis set group =>   1
Atom   3C    basis set group =>   1
Atom   4C    basis set group =>   1
Atom   5H    basis set group =>   2
Atom   6H    basis set group =>   2
Atom   7H    basis set group =>   2
Atom   8F    basis set group =>   3
Atom   9H    basis set group =>   2
Atom  10H    basis set group =>   2
Atom  11H    basis set group =>   2
Atom  12H    basis set group =>   2
---------------------------------
AUXILIARY/J BASIS SET INFORMATION
---------------------------------
There are 3 groups of distinct atoms

 Group   1 Type C   : 12s5p4d2f1g contracted to 6s4p3d1f1g pattern {711111/2111/211/2/1}
 Group   2 Type H   : 5s2p1d contracted to 3s1p1d pattern {311/2/1}
 Group   3 Type F   : 12s5p4d2f1g contracted to 6s4p3d1f1g pattern {711111/2111/211/2/1}

Atom   0C    basis set group =>   1
Atom   1C    basis set group =>   1
Atom   2C    basis set group =>   1
Atom   3C    basis set group =>   1
Atom   4C    basis set group =>   1
Atom   5H    basis set group =>   2
Atom   6H    basis set group =>   2
Atom   7H    basis set group =>   2
Atom   8F    basis set group =>   3
Atom   9H    basis set group =>   2
Atom  10H    basis set group =>   2
Atom  11H    basis set group =>   2
Atom  12H    basis set group =>   2
------------------------------------------------------------------------------
                           ORCA GTO INTEGRAL CALCULATION
                           -- RI-GTO INTEGRALS CHOSEN --
------------------------------------------------------------------------------
------------------------------------------------------------------------------
                   ___                                                        
                  /   \      - P O W E R E D   B Y -                         
                 /     \                                                     
                 |  |  |   _    _      __       _____    __    __             
                 |  |  |  | |  | |    /  \     |  _  \  |  |  /  |          
                  \  \/   | |  | |   /    \    | | | |  |  | /  /          
                 / \  \   | |__| |  /  /\  \   | |_| |  |  |/  /          
                |  |  |   |  __  | /  /__\  \  |    /   |      \           
                |  |  |   | |  | | |   __   |  |    \   |  |\   \          
                \     /   | |  | | |  |  |  |  | |\  \  |  | \   \       
                 \___/    |_|  |_| |__|  |__|  |_| \__\ |__|  \__/        
                                                                              
                      - O R C A' S   B I G   F R I E N D -                    
                                      &                                       
                       - I N T E G R A L  F E E D E R -                       
                                                                              
 v1 FN, 2020, v2 2021                                                         
------------------------------------------------------------------------------


Reading SHARK input file first_job.SHARKINP.tmp ... ok
----------------------
SHARK INTEGRAL PACKAGE
----------------------

Number of atoms                             ...     13
Number of basis functions                   ...    119
Number of shells                            ...     57
Maximum angular momentum                    ...      2
Integral batch strategy                     ... SHARK/LIBINT Hybrid
RI-J (if used) integral strategy            ... SPLIT-RIJ (Revised 2003 algorithm where possible)
Printlevel                                  ...      1
Contraction scheme used                     ... SEGMENTED contraction
Coulomb Range Separation                    ... NOT USED
Exchange Range Separation                   ... NOT USED
Finite Nucleus Model                        ... NOT USED
Auxiliary Coulomb fitting basis             ... AVAILABLE
   # of basis functions in Aux-J            ...    371
   # of shells in Aux-J                     ...    125
   Maximum angular momentum in Aux-J        ...      4
Auxiliary J/K fitting basis                 ... NOT available
Auxiliary Correlation fitting basis         ... NOT available
Auxiliary 'external' fitting basis          ... NOT available
Integral threshold                          ...     2.500000e-11
Primitive cut-off                           ...     2.500000e-12
Primitive pair pre-selection threshold      ...     2.500000e-12

Calculating pre-screening integrals         ... done (  0.1 sec) Dimension = 57
Organizing shell pair data                  ... done (  0.1 sec)
Shell pair information
Total number of shell pairs                 ...      1653
Shell pairs after pre-screening             ...      1518
Total number of primitive shell pairs       ...      5877
Primitive shell pairs kept                  ...      4130
          la=0 lb=0:    492 shell pairs
          la=1 lb=0:    564 shell pairs
          la=1 lb=1:    172 shell pairs
          la=2 lb=0:    171 shell pairs
          la=2 lb=1:    101 shell pairs
          la=2 lb=2:     18 shell pairs

Calculating one electron integrals          ... done (  0.0 sec)
Calculating RI/J V-Matrix + Cholesky decomp.... done (  0.0 sec)
Calculating Nuclear repulsion               ... done (  0.0 sec) ENN=    206.250702646307 Eh

SHARK setup successfully completed in   0.4 seconds

Maximum memory used throughout the entire GTOINT-calculation: 12.7 MB
-------------------------------------------------------------------------------
                                 ORCA SCF
-------------------------------------------------------------------------------

------------
SCF SETTINGS
------------
Hamiltonian:
 Density Functional     Method          .... DFT(GTOs)
 Exchange Functional    Exchange        .... B88
   X-Alpha parameter    XAlpha          ....  0.666667
   Becke's b parameter  XBeta           ....  0.004200
 Correlation Functional Correlation     .... LYP
 LDA part of GGA corr.  LDAOpt          .... VWN-5
 Gradients option       PostSCFGGA      .... off
 Hybrid DFT is turned on
   Fraction HF Exchange ScalHFX         ....  0.200000
   Scaling of DF-GGA-X  ScalDFX         ....  0.720000
   Scaling of DF-GGA-C  ScalDFC         ....  0.810000
   Scaling of DF-LDA-C  ScalLDAC        ....  1.000000
   Perturbative correction              ....  0.000000
   Density functional embedding theory  .... OFF
   NL short-range parameter             ....  4.800000
 RI-approximation to the Coulomb term is turned on
   Number of AuxJ basis functions       .... 371
   RIJ-COSX (HFX calculated with COS-X)).... on


General Settings:
 Integral files         IntName         .... first_job
 Hartree-Fock type      HFTyp           .... RHF
 Total Charge           Charge          ....    0
 Multiplicity           Mult            ....    1
 Number of Electrons    NEL             ....   46
 Basis Dimension        Dim             ....  119
 Nuclear Repulsion      ENuc            ....    206.2507026463 Eh

Convergence Acceleration:
 DIIS                   CNVDIIS         .... on
   Start iteration      DIISMaxIt       ....    12
   Startup error        DIISStart       ....  0.200000
   # of expansion vecs  DIISMaxEq       ....     5
   Bias factor          DIISBfac        ....   1.050
   Max. coefficient     DIISMaxC        ....  10.000
 Trust-Rad. Augm. Hess. CNVTRAH         .... auto
   Auto Start mean grad. ratio tolernc. ....  1.125000
   Auto Start start iteration           ....    20
   Auto Start num. interpolation iter.  ....    10
   Max. Number of Micro iterations      ....    16
   Max. Number of Macro iterations      .... Maxiter - #DIIS iter
   Number of Davidson start vectors     ....     2
   Converg. threshold I  (grad. norm)   ....   1.000e-05
   Converg. threshold II (energy diff.) ....   1.000e-08
   Grad. Scal. Fac. for Micro threshold ....   0.100
   Minimum threshold for Micro iter.    ....   0.010
   NR start threshold (gradient norm)   ....   0.001
   Initial trust radius                 ....   0.400
   Minimum AH scaling param. (alpha)    ....   1.000
   Maximum AH scaling param. (alpha)    .... 1000.000
   Orbital update algorithm             .... Taylor
   White noise on init. David. guess    .... on
   Maximum white noise                  ....   0.010
   Quad. conv. algorithm                .... NR
 SOSCF                  CNVSOSCF        .... on
   Start iteration      SOSCFMaxIt      ....   150
   Startup grad/error   SOSCFStart      ....  0.003300
 Level Shifting         CNVShift        .... on
   Level shift para.    LevelShift      ....    0.2500
   Turn off err/grad.   ShiftErr        ....    0.0010
 Zerner damping         CNVZerner       .... off
 Static damping         CNVDamp         .... on
   Fraction old density DampFac         ....    0.7000
   Max. Damping (<1)    DampMax         ....    0.9800
   Min. Damping (>=0)   DampMin         ....    0.0000
   Turn off err/grad.   DampErr         ....    0.1000
 Fernandez-Rico         CNVRico         .... off

SCF Procedure:
 Maximum # iterations   MaxIter         ....   125
 SCF integral mode      SCFMode         .... Direct
   Integral package                     .... SHARK and LIBINT hybrid scheme
 Reset frequency        DirectResetFreq ....    20
 Integral Threshold     Thresh          ....  2.500e-11 Eh
 Primitive CutOff       TCut            ....  2.500e-12 Eh

Convergence Tolerance:
 Convergence Check Mode ConvCheckMode   .... Total+1el-Energy
 Convergence forced     ConvForced      .... 0
 Energy Change          TolE            ....  1.000e-08 Eh
 1-El. energy change                    ....  1.000e-05 Eh
 Orbital Gradient       TolG            ....  1.000e-05
 Orbital Rotation angle TolX            ....  1.000e-05
 DIIS Error             TolErr          ....  5.000e-07


Diagonalization of the overlap matrix:
Smallest eigenvalue                        ... 1.432e-03
Time for diagonalization                   ...    0.008 sec
Threshold for overlap eigenvalues          ... 1.000e-08
Number of eigenvalues below threshold      ... 0
Time for construction of square roots      ...    0.004 sec
Total time needed                          ...    0.012 sec

Time for model grid setup =    1.109 sec

------------------------------
INITIAL GUESS: MODEL POTENTIAL
------------------------------
Loading Hartree-Fock densities                     ... done
Calculating cut-offs                               ... done
Initializing the effective Hamiltonian             ... done
Setting up the integral package (SHARK)            ... done
Starting the Coulomb interaction                   ... done (   0.4 sec)
Reading the grid                                   ... done
Mapping shells                                     ... done
Starting the XC term evaluation                    ... done (   1.1 sec)
  promolecular density results
     # of electrons  =     45.997338475
     EX              =    -37.781559358
     EC              =     -1.532918756
     EX+EC           =    -39.314478114
Transforming the Hamiltonian                       ... done (   0.0 sec)
Diagonalizing the Hamiltonian                      ... done (   0.0 sec)
Back transforming the eigenvectors                 ... done (   0.0 sec)
Now organizing SCF variables                       ... done
                      ------------------
                      INITIAL GUESS DONE (   2.8 sec)
                      ------------------
-------------------
DFT GRID GENERATION
-------------------

General Integration Accuracy     IntAcc      ... 4.388
Radial Grid Type                 RadialGrid  ... OptM3 with GC (2021)
Angular Grid (max. ang.)         AngularGrid ... 4 (Lebedev-302)
Angular grid pruning method      GridPruning ... 4 (adaptive)
Weight generation scheme         WeightScheme... Becke
Basis function cutoff            BFCut       ... 1.0000e-11
Integration weight cutoff        WCut        ... 1.0000e-14
Angular grids for H and He will be reduced by one unit
Partially contracted basis set               ... off
Rotationally invariant grid construction     ... off

Total number of grid points                  ...    59010
Total number of batches                      ...      928
Average number of points per batch           ...       63
Average number of grid points per atom       ...     4539
Time for grid setup =    2.488 sec

--------------------
COSX GRID GENERATION
--------------------

GRIDX 1
-------
General Integration Accuracy     IntAcc      ... 3.816
Radial Grid Type                 RadialGrid  ... OptM3 with GC (2021)
Angular Grid (max. ang.)         AngularGrid ... 1 (Lebedev-50)
Angular grid pruning method      GridPruning ... 4 (adaptive)
Weight generation scheme         WeightScheme... Becke
Basis function cutoff            BFCut       ... 1.0000e-11
Integration weight cutoff        WCut        ... 1.0000e-14
Angular grids for H and He will be reduced by one unit
Partially contracted basis set               ... on
Rotationally invariant grid construction     ... off

Total number of grid points                  ...     7552
Total number of batches                      ...      124
Average number of points per batch           ...       60
Average number of grid points per atom       ...      581
UseSFitting                                  ... on

GRIDX 2
-------
General Integration Accuracy     IntAcc      ... 4.020
Radial Grid Type                 RadialGrid  ... OptM3 with GC (2021)
Angular Grid (max. ang.)         AngularGrid ... 2 (Lebedev-110)
Angular grid pruning method      GridPruning ... 4 (adaptive)
Weight generation scheme         WeightScheme... Becke
Basis function cutoff            BFCut       ... 1.0000e-11
Integration weight cutoff        WCut        ... 1.0000e-14
Angular grids for H and He will be reduced by one unit
Partially contracted basis set               ... on
Rotationally invariant grid construction     ... off

Total number of grid points                  ...    16365
Total number of batches                      ...      262
Average number of points per batch           ...       62
Average number of grid points per atom       ...     1259
UseSFitting                                  ... on

GRIDX 3
-------
General Integration Accuracy     IntAcc      ... 4.338
Radial Grid Type                 RadialGrid  ... OptM3 with GC (2021)
Angular Grid (max. ang.)         AngularGrid ... 3 (Lebedev-194)
Angular grid pruning method      GridPruning ... 4 (adaptive)
Weight generation scheme         WeightScheme... Becke
Basis function cutoff            BFCut       ... 1.0000e-11
Integration weight cutoff        WCut        ... 1.0000e-14
Angular grids for H and He will be reduced by one unit
Partially contracted basis set               ... on
Rotationally invariant grid construction     ... off

Total number of grid points                  ...    35993
Total number of batches                      ...      568
Average number of points per batch           ...       63
Average number of grid points per atom       ...     2769
UseSFitting                                  ... on

Time for X-Grid setup             =    2.363 sec

--------------
SCF ITERATIONS
--------------
ITER       Energy         Delta-E        Max-DP      RMS-DP      [F,P]     Damp
               ***  Starting incremental Fock matrix formation  ***
  0   -293.9987180073   0.000000000000 0.07555399  0.00245639  0.1686185 0.7000
  1   -294.0701909889  -0.071472981656 0.04841861  0.00176626  0.0887629 0.7000
                               ***Turning on DIIS***
  2   -294.0994386330  -0.029247644060 0.07944278  0.00297246  0.0338000 0.0000
  3   -294.1394414105  -0.040002777549 0.03271414  0.00132817  0.0485136 0.0000
  4   -294.1521960153  -0.012754604786 0.01433286  0.00039306  0.0110774 0.0000
  5   -294.1528726340  -0.000676618656 0.00282324  0.00012679  0.0048809 0.0000
                      *** Initiating the SOSCF procedure ***
                           *** Shutting down DIIS ***
                      *** Re-Reading the Fockian *** 
                      *** Removing any level shift *** 
ITER      Energy       Delta-E        Grad      Rot      Max-DP    RMS-DP
  6   -294.15293427  -0.0000616352  0.000435  0.000435  0.001742  0.000072
               *** Restarting incremental Fock matrix formation ***
  7   -294.15309140  -0.0001571271  0.000359  0.001809  0.001678  0.000053
  8   -294.15308825   0.0000031444  0.000740  0.001293  0.001224  0.000031
  9   -294.15309287  -0.0000046184  0.000053  0.000131  0.000188  0.000007
 10   -294.15309283   0.0000000451  0.000065  0.000071  0.000117  0.000004
 11   -294.15309293  -0.0000001002  0.000007  0.000021  0.000027  0.000001
 12   -294.15309292   0.0000000012  0.000012  0.000014  0.000018  0.000001
                  ***Gradient check signals convergence***
              ***Rediagonalizing the Fockian in SOSCF/NRSCF***

               *****************************************************
               *                     SUCCESS                       *
               *           SCF CONVERGED AFTER  13 CYCLES          *
               *****************************************************

Old exchange energy                            =     -7.667932645 Eh
New exchange energy                            =     -7.667872382 Eh
Exchange energy change after final integration =      0.000060263 Eh
Total energy after final integration           =   -294.153032662 Eh
Final COS-X integration done in                =    22.195 sec

----------------
TOTAL SCF ENERGY
----------------

Total Energy       :         -294.15303266 Eh           -8004.31095 eV

Components:
Nuclear Repulsion  :          206.25070265 Eh            5612.36695 eV
Electronic Energy  :         -500.40373531 Eh          -13616.67790 eV
One Electron Energy:         -808.44539745 Eh          -21998.91767 eV
Two Electron Energy:          308.04166215 Eh            8382.23977 eV
Max COSX asymmetry :            0.00000396 Eh               0.00011 eV

Virial components:
Potential Energy   :         -585.56657324 Eh          -15934.07653 eV
Kinetic Energy     :          291.41354058 Eh            7929.76558 eV
Virial Ratio       :            2.00940070


DFT components:
N(Alpha)           :       22.999988969061 electrons
N(Beta)            :       22.999988969061 electrons
N(Total)           :       45.999977938123 electrons
E(X)               :      -30.458719086376 Eh       
E(C)               :       -1.816684212903 Eh       
E(XC)              :      -32.275403299279 Eh       
DFET-embed. en.    :        0.000000000000 Eh       

---------------
SCF CONVERGENCE
---------------

  Last Energy change         ...   -3.1514e-10  Tolerance :   1.0000e-08
  Last MAX-Density change    ...    1.7764e-15  Tolerance :   1.0000e-07
  Last RMS-Density change    ...    3.8711e-17  Tolerance :   5.0000e-09
  Last Orbital Gradient      ...    7.9569e-07  Tolerance :   1.0000e-05
  Last Orbital Rotation      ...    1.5281e-06  Tolerance :   1.0000e-05

             **** THE GBW FILE WAS UPDATED (first_job.gbw) ****
             **** DENSITY first_job.scfp WAS UPDATED ****
             **** ENERGY FILE WAS UPDATED (first_job.en.tmp) ****
             **** THE GBW FILE WAS UPDATED (first_job.gbw) ****
             **** DENSITY first_job.scfp WAS UPDATED ****
----------------
ORBITAL ENERGIES
----------------

  NO   OCC          E(Eh)            E(eV) 
   0   2.0000     -24.686499      -671.7538 
   1   2.0000     -10.260314      -279.1973 
   2   2.0000     -10.189995      -277.2839 
   3   2.0000     -10.189694      -277.2757 
   4   2.0000     -10.187841      -277.2253 
   5   2.0000     -10.187052      -277.2038 
   6   2.0000      -1.188054       -32.3286 
   7   2.0000      -0.807204       -21.9651 
   8   2.0000      -0.754730       -20.5373 
   9   2.0000      -0.672745       -18.3063 
  10   2.0000      -0.585069       -15.9205 
  11   2.0000      -0.559970       -15.2375 
  12   2.0000      -0.513584       -13.9753 
  13   2.0000      -0.485306       -13.2058 
  14   2.0000      -0.448479       -12.2037 
  15   2.0000      -0.441234       -12.0066 
  16   2.0000      -0.416450       -11.3322 
  17   2.0000      -0.407766       -11.0959 
  18   2.0000      -0.374385       -10.1875 
  19   2.0000      -0.362865        -9.8741 
  20   2.0000      -0.354230        -9.6391 
  21   2.0000      -0.312818        -8.5122 
  22   2.0000      -0.219976        -5.9859 
  23   0.0000      -0.021458        -0.5839 
  24   0.0000       0.060832         1.6553 
  25   0.0000       0.069483         1.8907 
  26   0.0000       0.072790         1.9807 
  27   0.0000       0.098285         2.6745 
  28   0.0000       0.117249         3.1905 
  29   0.0000       0.133247         3.6258 
  30   0.0000       0.149728         4.0743 
  31   0.0000       0.151006         4.1091 
  32   0.0000       0.170453         4.6383 
  33   0.0000       0.251469         6.8428 
  34   0.0000       0.282775         7.6947 
  35   0.0000       0.320228         8.7139 
  36   0.0000       0.377929        10.2840 
  37   0.0000       0.390706        10.6316 
  38   0.0000       0.408378        11.1125 
  39   0.0000       0.433797        11.8042 
  40   0.0000       0.461452        12.5567 
  41   0.0000       0.461956        12.5705 
  42   0.0000       0.479852        13.0574 
  43   0.0000       0.511436        13.9169 
  44   0.0000       0.522166        14.2089 
  45   0.0000       0.524851        14.2819 
  46   0.0000       0.586414        15.9571 
  47   0.0000       0.614378        16.7181 
  48   0.0000       0.637396        17.3444 
  49   0.0000       0.638686        17.3795 
  50   0.0000       0.645778        17.5725 
  51   0.0000       0.652756        17.7624 
  52   0.0000       0.665200        18.1010 
  53   0.0000       0.672089        18.2885 
  54   0.0000       0.673186        18.3183 
  55   0.0000       0.692688        18.8490 
  56   0.0000       0.704482        19.1699 
  57   0.0000       0.752982        20.4897 
  58   0.0000       0.799346        21.7513 
  59   0.0000       0.848300        23.0834 
  60   0.0000       0.929390        25.2900 
  61   0.0000       0.952602        25.9216 
  62   0.0000       1.074414        29.2363 
  63   0.0000       1.123733        30.5783 
  64   0.0000       1.147621        31.2284 
  65   0.0000       1.150106        31.2960 
  66   0.0000       1.235232        33.6124 
  67   0.0000       1.236757        33.6539 
  68   0.0000       1.246955        33.9314 
  69   0.0000       1.287004        35.0212 
  70   0.0000       1.349340        36.7174 
  71   0.0000       1.429993        38.9121 
  72   0.0000       1.502803        40.8934 
  73   0.0000       1.517866        41.3032 
  74   0.0000       1.541143        41.9366 
  75   0.0000       1.566477        42.6260 
  76   0.0000       1.655082        45.0371 
  77   0.0000       1.700736        46.2794 
  78   0.0000       1.712839        46.6087 
  79   0.0000       1.745960        47.5100 
  80   0.0000       1.766288        48.0631 
  81   0.0000       1.766618        48.0721 
  82   0.0000       1.777401        48.3655 
  83   0.0000       1.802382        49.0453 
  84   0.0000       1.838999        50.0417 
  85   0.0000       1.850734        50.3610 
  86   0.0000       1.865611        50.7658 
  87   0.0000       1.905629        51.8548 
  88   0.0000       1.963170        53.4206 
  89   0.0000       1.966420        53.5090 
  90   0.0000       2.034926        55.3732 
  91   0.0000       2.061085        56.0850 
  92   0.0000       2.071622        56.3717 
  93   0.0000       2.140207        58.2380 
  94   0.0000       2.166372        58.9500 
  95   0.0000       2.186955        59.5101 
  96   0.0000       2.248005        61.1713 
  97   0.0000       2.250516        61.2396 
  98   0.0000       2.361764        64.2669 
  99   0.0000       2.434682        66.2511 
 100   0.0000       2.443401        66.4883 
 101   0.0000       2.495824        67.9148 
 102   0.0000       2.499430        68.0130 
 103   0.0000       2.567736        69.8716 
 104   0.0000       2.581267        70.2398 
 105   0.0000       2.644519        71.9610 
 106   0.0000       2.745136        74.6989 
 107   0.0000       2.799773        76.1857 
 108   0.0000       2.865818        77.9829 
 109   0.0000       2.887054        78.5607 
 110   0.0000       2.900063        78.9147 
 111   0.0000       2.957589        80.4801 
 112   0.0000       3.087786        84.0229 
 113   0.0000       3.108856        84.5963 
 114   0.0000       3.211948        87.4015 
 115   0.0000       3.307211        89.9938 
 116   0.0000       3.312258        90.1311 
 117   0.0000       3.528248        96.0085 
 118   0.0000       3.826468       104.1235 

                    ********************************
                    * MULLIKEN POPULATION ANALYSIS *
                    ********************************

-----------------------
MULLIKEN ATOMIC CHARGES
-----------------------
   0 C :    0.198108
   1 C :    0.000321
   2 C :    0.014375
   3 C :   -0.109131
   4 C :    0.043888
   5 H :    0.034230
   6 H :    0.014233
   7 H :    0.034276
   8 F :   -0.214376
   9 H :    0.006228
  10 H :    0.001065
  11 H :   -0.019745
  12 H :   -0.003471
Sum of atomic charges:   -0.0000000

--------------------------------
MULLIKEN REDUCED ORBITAL CHARGES
--------------------------------
  0 C s       :     3.084878  s :     3.084878
      pz      :     1.041660  p :     2.647067
      px      :     0.731586
      py      :     0.873822
      dz2     :     0.004988  d :     0.069946
      dxz     :     0.014839
      dyz     :     0.002929
      dx2y2   :     0.024430
      dxy     :     0.022761
  1 C s       :     3.148787  s :     3.148787
      pz      :     1.017196  p :     2.817239
      px      :     0.904092
      py      :     0.895951
      dz2     :     0.002575  d :     0.033653
      dxz     :     0.008214
      dyz     :     0.002274
      dx2y2   :     0.010791
      dxy     :     0.009799
  2 C s       :     3.135764  s :     3.135764
      pz      :     1.006582  p :     2.814847
      px      :     0.920078
      py      :     0.888186
      dz2     :     0.002504  d :     0.035014
      dxz     :     0.007571
      dyz     :     0.001999
      dx2y2   :     0.012795
      dxy     :     0.010145
  3 C s       :     3.179589  s :     3.179589
      pz      :     0.996849  p :     2.893985
      px      :     0.970692
      py      :     0.926444
      dz2     :     0.002405  d :     0.035557
      dxz     :     0.007135
      dyz     :     0.002047
      dx2y2   :     0.013318
      dxy     :     0.010653
  4 C s       :     2.973053  s :     2.973053
      pz      :     1.000510  p :     2.954454
      px      :     0.970533
      py      :     0.983411
      dz2     :     0.005529  d :     0.028605
      dxz     :     0.002849
      dyz     :     0.007681
      dx2y2   :     0.004203
      dxy     :     0.008343
  5 H s       :     0.942707  s :     0.942707
      pz      :     0.010744  p :     0.023063
      px      :     0.004507
      py      :     0.007811
  6 H s       :     0.963274  s :     0.963274
      pz      :     0.004724  p :     0.022494
      px      :     0.009412
      py      :     0.008358
  7 H s       :     0.942663  s :     0.942663
      pz      :     0.011087  p :     0.023061
      px      :     0.004514
      py      :     0.007460
  8 F s       :     3.903724  s :     3.903724
      pz      :     1.897595  p :     5.302920
      px      :     1.600863
      py      :     1.804462
      dz2     :     0.001034  d :     0.007732
      dxz     :     0.001498
      dyz     :     0.000447
      dx2y2   :     0.002004
      dxy     :     0.002748
  9 H s       :     0.969977  s :     0.969977
      pz      :     0.005536  p :     0.023795
      px      :     0.002663
      py      :     0.015596
 10 H s       :     0.975504  s :     0.975504
      pz      :     0.004724  p :     0.023431
      px      :     0.003489
      py      :     0.015218
 11 H s       :     0.996594  s :     0.996594
      pz      :     0.004831  p :     0.023151
      px      :     0.003421
      py      :     0.014899
 12 H s       :     0.980448  s :     0.980448
      pz      :     0.004785  p :     0.023023
      px      :     0.003438
      py      :     0.014800


                     *******************************
                     * LOEWDIN POPULATION ANALYSIS *
                     *******************************

----------------------
LOEWDIN ATOMIC CHARGES
----------------------
   0 C :    0.084639
   1 C :   -0.062503
   2 C :   -0.033848
   3 C :   -0.034759
   4 C :   -0.060680
   5 H :    0.036429
   6 H :    0.029100
   7 H :    0.036437
   8 F :   -0.088593
   9 H :    0.015877
  10 H :    0.034524
  11 H :    0.022525
  12 H :    0.020853

-------------------------------
LOEWDIN REDUCED ORBITAL CHARGES
-------------------------------
  0 C s       :     2.879018  s :     2.879018
      pz      :     1.020035  p :     2.876540
      px      :     0.860960
      py      :     0.995545
      dz2     :     0.011313  d :     0.159803
      dxz     :     0.029649
      dyz     :     0.005166
      dx2y2   :     0.059844
      dxy     :     0.053831
  1 C s       :     2.876536  s :     2.876536
      pz      :     0.996066  p :     3.098747
      px      :     1.049835
      py      :     1.052846
      dz2     :     0.006668  d :     0.087220
      dxz     :     0.016593
      dyz     :     0.004034
      dx2y2   :     0.030644
      dxy     :     0.029281
  2 C s       :     2.865101  s :     2.865101
      pz      :     0.988194  p :     3.077893
      px      :     1.043405
      py      :     1.046294
      dz2     :     0.006085  d :     0.090854
      dxz     :     0.015615
      dyz     :     0.003785
      dx2y2   :     0.035918
      dxy     :     0.029450
  3 C s       :     2.874472  s :     2.874472
      pz      :     0.964956  p :     3.071848
      px      :     1.055930
      py      :     1.050962
      dz2     :     0.005782  d :     0.088438
      dxz     :     0.013889
      dyz     :     0.003474
      dx2y2   :     0.035728
      dxy     :     0.029565
  4 C s       :     2.842273  s :     2.842273
      pz      :     1.059654  p :     3.146064
      px      :     1.030262
      py      :     1.056148
      dz2     :     0.014584  d :     0.072343
      dxz     :     0.005817
      dyz     :     0.020045
      dx2y2   :     0.009796
      dxy     :     0.022101
  5 H s       :     0.900695  s :     0.900695
      pz      :     0.029584  p :     0.062877
      px      :     0.012082
      py      :     0.021210
  6 H s       :     0.908667  s :     0.908667
      pz      :     0.011543  p :     0.062234
      px      :     0.027074
      py      :     0.023617
  7 H s       :     0.900687  s :     0.900687
      pz      :     0.030666  p :     0.062876
      px      :     0.012098
      py      :     0.020112
  8 F s       :     3.736183  s :     3.736183
      pz      :     1.891979  p :     5.340487
      px      :     1.626005
      py      :     1.822503
      dz2     :     0.001711  d :     0.011924
      dxz     :     0.002205
      dyz     :     0.000633
      dx2y2   :     0.002951
      dxy     :     0.004423
  9 H s       :     0.913148  s :     0.913148
      pz      :     0.016092  p :     0.070975
      px      :     0.007753
      py      :     0.047129
 10 H s       :     0.896917  s :     0.896917
      pz      :     0.014855  p :     0.068560
      px      :     0.010468
      py      :     0.043237
 11 H s       :     0.910165  s :     0.910165
      pz      :     0.014444  p :     0.067309
      px      :     0.010878
      py      :     0.041987
 12 H s       :     0.910129  s :     0.910129
      pz      :     0.015659  p :     0.069018
      px      :     0.011212
      py      :     0.042147


                      *****************************
                      * MAYER POPULATION ANALYSIS *
                      *****************************

  NA   - Mulliken gross atomic population
  ZA   - Total nuclear charge
  QA   - Mulliken gross atomic charge
  VA   - Mayer's total valence
  BVA  - Mayer's bonded valence
  FA   - Mayer's free valence

  ATOM       NA         ZA         QA         VA         BVA        FA
  0 C      5.8019     6.0000     0.1981     3.9280     3.9280    -0.0000
  1 C      5.9997     6.0000     0.0003     3.8533     3.8533     0.0000
  2 C      5.9856     6.0000     0.0144     3.9217     3.9217    -0.0000
  3 C      6.1091     6.0000    -0.1091     4.0195     4.0195    -0.0000
  4 C      5.9561     6.0000     0.0439     3.9228     3.9228    -0.0000
  5 H      0.9658     1.0000     0.0342     0.9884     0.9884     0.0000
  6 H      0.9858     1.0000     0.0142     0.9853     0.9853    -0.0000
  7 H      0.9657     1.0000     0.0343     0.9884     0.9884     0.0000
  8 F      9.2144     9.0000    -0.2144     1.1419     1.1419    -0.0000
  9 H      0.9938     1.0000     0.0062     0.9944     0.9944    -0.0000
 10 H      0.9989     1.0000     0.0011     1.0015     1.0015    -0.0000
 11 H      1.0197     1.0000    -0.0197     0.9929     0.9929    -0.0000
 12 H      1.0035     1.0000    -0.0035     0.9866     0.9866     0.0000

  Mayer bond orders larger than 0.100000
B(  0-C ,  1-C ) :   1.7877 B(  0-C ,  3-C ) :   0.1102 B(  0-C ,  8-F ) :   1.0430 
B(  0-C ,  9-H ) :   0.9728 B(  1-C ,  2-C ) :   1.0724 B(  1-C , 10-H ) :   0.9685 
B(  2-C ,  3-C ) :   1.8515 B(  2-C , 11-H ) :   0.9693 B(  3-C ,  4-C ) :   1.0450 
B(  3-C , 12-H ) :   0.9672 B(  4-C ,  5-H ) :   0.9642 B(  4-C ,  6-H ) :   0.9634 
B(  4-C ,  7-H ) :   0.9642 

-------
TIMINGS
-------

Total SCF time: 0 days 0 hours 1 min 48 sec 

Total time                  ....     108.632 sec
Sum of individual times     ....     107.544 sec  ( 99.0%)

Fock matrix formation       ....      99.603 sec  ( 91.7%)
  Split-RI-J                ....       6.022 sec  (  6.0% of F)
  Chain of spheres X        ....      77.392 sec  ( 77.7% of F)
  XC integration            ....      16.022 sec  ( 16.1% of F)
    Basis function eval.    ....       6.359 sec  ( 39.7% of XC)
    Density eval.           ....       4.129 sec  ( 25.8% of XC)
    XC-Functional eval.     ....       1.495 sec  (  9.3% of XC)
    XC-Potential eval.      ....       2.868 sec  ( 17.9% of XC)
Diagonalization             ....       0.034 sec  (  0.0%)
Density matrix formation    ....       0.010 sec  (  0.0%)
Population analysis         ....       0.070 sec  (  0.1%)
Initial guess               ....       1.694 sec  (  1.6%)
Orbital Transformation      ....       0.000 sec  (  0.0%)
Orbital Orthonormalization  ....       0.000 sec  (  0.0%)
DIIS solution               ....       0.116 sec  (  0.1%)
SOSCF solution              ....       0.057 sec  (  0.1%)
Grid generation             ....       5.960 sec  (  5.5%)

Maximum memory used throughout the entire SCF-calculation: 57.5 MB


-------------------------------------------------------------------------------
                          DFT DISPERSION CORRECTION                            
                                                                               
                                 DFTD4 V2.5                                    
-------------------------------------------------------------------------------
The B3LYP functional is recognized
Active option DFTDOPT                   ...         5   

Starting D4
-------------------------   ----------------
Dispersion correction           -0.013403869
-------------------------   ----------------


-------------------------   --------------------
FINAL SINGLE POINT ENERGY      -294.166436530704
-------------------------   --------------------

------------------------------------------------------------------------------
                         ORCA SCF GRADIENT CALCULATION
------------------------------------------------------------------------------

 ... reading COSX grid (gridx3)
Gradient of the Kohn-Sham DFT energy:
Kohn-Sham wavefunction type      ... RKS
Hartree-Fock exchange scaling    ...    0.200
Number of operators              ...    1
Number of atoms                  ...   13
Basis set dimensions             ...  119
Integral neglect threshold       ... 2.5e-11
Integral primitive cutoff        ... 2.5e-12
SHARK Integral package           ... ON

Nuc. rep. gradient       (SHARK) ... done (  0.0 sec)
HCore & Overlap gradient (SHARK) ... done (  0.4 sec)
RI-J gradient            (SHARK) ... done (  2.2 sec)
COSX-gradient                    ... done ( 17.3 sec)
Exchange-correlation gradient    ... done
Dispersion correction            ... Starting D4


------------------- 
Dispersion Gradient 
------------------- 
   1  :    0.000384368   -0.000071263    0.000002327
   2  :    0.000282586    0.000084678   -0.000001150
   3  :   -0.000010223   -0.000052249    0.000001078
   4  :   -0.000337889    0.000094211   -0.000002709
   5  :   -0.000415206   -0.000080553    0.000000777
   6  :   -0.000107200   -0.000021142   -0.000019574
   7  :   -0.000093378    0.000000360   -0.000000213
   8  :   -0.000107287   -0.000020314    0.000019972
   9  :    0.000264336    0.000029324   -0.000000041
  10  :    0.000122455   -0.000031276    0.000000919
  11  :    0.000084425    0.000063698   -0.000001147
  12  :    0.000002100   -0.000065372    0.000001375
  13  :   -0.000069086    0.000069900   -0.000001615

  |G| =    0.000830821

done

------------------
CARTESIAN GRADIENT
------------------

   1   C   :   -0.003428583   -0.021952564    0.000450032
   2   C   :    0.010743493    0.019817975   -0.000387324
   3   C   :   -0.018513339   -0.027574277    0.000531823
   4   C   :    0.003667310    0.012750506   -0.000253789
   5   C   :    0.007953074   -0.006609181    0.000161105
   6   H   :    0.003420217   -0.001219464   -0.005574211
   7   H   :   -0.001166709    0.008124949   -0.000169436
   8   H   :    0.003398685   -0.000983359    0.005636505
   9   F   :    0.008995375    0.017168824   -0.000378934
  10   H   :   -0.013126932    0.005516972   -0.000144022
  11   H   :    0.001729002   -0.004925681    0.000106116
  12   H   :   -0.002679324    0.005839635   -0.000128290
  13   H   :   -0.001258183   -0.005782486    0.000117370

Difference to translation invariance:
           :   -0.0002659149    0.0001718502   -0.0000330554

Difference to rotation invariance:
           :    0.0000644762   -0.0000168690   -0.0025224266

Norm of the cartesian gradient     ...    0.0568045660
RMS gradient                       ...    0.0090960103
MAX gradient                       ...    0.0275742765

-------
TIMINGS
-------

Total SCF gradient time            ...       29.419 sec

One electron gradient       ....       0.356 sec  (  1.2%)
RI-J Coulomb gradient       ....       2.238 sec  (  7.6%)
COSX gradient               ....      17.316 sec  ( 58.9%)
XC gradient                 ....       7.744 sec  ( 26.3%)

Maximum memory used throughout the entire SCFGRAD-calculation: 45.3 MB
------------------------------------------------------------------------------
                         ORCA GEOMETRY RELAXATION STEP
------------------------------------------------------------------------------

Reading the OPT-File                    .... done
Getting information on internals        .... done
Copying old internal coords+grads       .... done
Making the new internal coordinates     .... (new redundants).... done
Validating the new internal coordinates .... (new redundants).... done
Calculating the B-matrix                .... done
Calculating the G,G- and P matrices     .... done
Transforming gradient to internals      .... done
Projecting the internal gradient        .... done
Number of atoms                         ....  13
Number of internal coordinates          ....  48
Current Energy                          ....  -294.166436531 Eh
Current gradient norm                   ....     0.056804566 Eh/bohr
Maximum allowed component of the step   ....  0.300
Current trust radius                    ....  0.300
Evaluating the initial hessian          ....  (Almloef) done
Projecting the Hessian                  .... done
Forming the augmented Hessian           .... done
Diagonalizing the augmented Hessian     .... done
Last element of RFO vector              ....  0.993791654
Lowest eigenvalues of augmented Hessian:
 -0.004971321  0.013106535  0.014026113  0.024254096  0.027264166
Length of the computed step             ....  0.111952170
The final length of the internal step   ....  0.111952170
Converting the step to cartesian space:
 Initial RMS(Int)=    0.0161589038
Transforming coordinates:
 Iter   0:  RMS(Cart)=    0.0324873187 RMS(Int)=    2.2213549373
 Iter   1:  RMS(Cart)=    0.0003305487 RMS(Int)=    0.0002455518
 Iter   2:  RMS(Cart)=    0.0000076204 RMS(Int)=    0.0000053131
 Iter   3:  RMS(Cart)=    0.0000002259 RMS(Int)=    0.0000002108
 Iter   4:  RMS(Cart)=    0.0000000075 RMS(Int)=    0.0000000057
done
Storing new coordinates                 .... done

                                .--------------------.
          ----------------------|Geometry convergence|-------------------------
          Item                value                   Tolerance       Converged
          ---------------------------------------------------------------------
          RMS gradient        0.0065588619            0.0001000000      NO
          MAX gradient        0.0178499825            0.0003000000      NO
          RMS step            0.0161589038            0.0020000000      NO
          MAX step            0.0483082679            0.0040000000      NO
          ........................................................
          Max(Bonds)      0.0147      Max(Angles)    2.77
          Max(Dihed)        0.19      Max(Improp)    0.00
          ---------------------------------------------------------------------

The optimization has not yet converged - more geometry cycles are needed


    ---------------------------------------------------------------------------
                         Redundant Internal Coordinates
                            (Angstroem and degrees)

        Definition                    Value    dE/dq     Step     New-Value
    ----------------------------------------------------------------------------
     1. B(C   1,C   0)                1.3354 -0.006821  0.0047    1.3401   
     2. B(C   2,C   1)                1.4771  0.011844 -0.0137    1.4635   
     3. B(C   3,C   2)                1.3392 -0.010766  0.0075    1.3467   
     4. B(C   4,C   3)                1.4974 -0.011666  0.0145    1.5119   
     5. B(H   5,C   4)                1.1105  0.004954 -0.0077    1.1028   
     6. B(H   6,C   4)                1.1101  0.006249 -0.0097    1.1003   
     7. B(H   7,C   4)                1.1105  0.004947 -0.0077    1.1028   
     8. B(F   8,C   0)                1.3585  0.016332 -0.0147    1.3438   
     9. B(H   9,C   0)                1.0861 -0.005659  0.0081    1.0942   
    10. B(H  10,C   1)                1.0868 -0.004903  0.0070    1.0938   
    11. B(H  11,C   2)                1.0877 -0.005788  0.0083    1.0960   
    12. B(H  12,C   3)                1.0870 -0.005798  0.0083    1.0953   
    13. A(F   8,C   0,H   9)          119.01  0.017850   -2.77    116.25   
    14. A(C   1,C   0,F   8)          120.01 -0.008934    1.26    121.27   
    15. A(C   1,C   0,H   9)          120.98 -0.008916    1.51    122.49   
    16. A(C   2,C   1,H  10)          119.81  0.005221   -0.80    119.02   
    17. A(C   0,C   1,H  10)          119.06  0.001408   -0.14    118.92   
    18. A(C   0,C   1,C   2)          121.12 -0.006629    0.94    122.07   
    19. A(C   1,C   2,H  11)          119.44  0.008402   -1.28    118.15   
    20. A(C   1,C   2,C   3)          120.98 -0.011159    1.59    122.57   
    21. A(C   3,C   2,H  11)          119.58  0.002757   -0.31    119.27   
    22. A(C   2,C   3,C   4)          120.97 -0.012719    1.81    122.78   
    23. A(C   4,C   3,H  12)          118.73  0.005103   -0.75    117.98   
    24. A(C   2,C   3,H  12)          120.30  0.007615   -1.07    119.23   
    25. A(C   3,C   4,H   7)          109.96 -0.004232    0.76    110.72   
    26. A(H   5,C   4,H   6)          108.88  0.004898   -0.84    108.04   
    27. A(C   3,C   4,H   6)          109.77 -0.006171    1.18    110.95   
    28. A(H   6,C   4,H   7)          108.88  0.004900   -0.84    108.04   
    29. A(H   5,C   4,H   7)          109.37  0.005066   -1.06    108.30   
    30. A(C   3,C   4,H   5)          109.96 -0.004243    0.76    110.72   
    31. D(H  10,C   1,C   0,H   9)   -180.00  0.000001   -0.00   -180.00   
    32. D(H  10,C   1,C   0,F   8)     -0.00 -0.000021    0.02      0.02   
    33. D(C   2,C   1,C   0,H   9)      0.00 -0.000015    0.02      0.02   
    34. D(C   2,C   1,C   0,F   8)    180.00 -0.000037    0.05    180.05   
    35. D(C   3,C   2,C   1,H  10)      0.00  0.000003   -0.01     -0.01   
    36. D(H  11,C   2,C   1,C   0)      0.00  0.000005   -0.01     -0.01   
    37. D(C   3,C   2,C   1,C   0)   -180.00  0.000019   -0.04   -180.04   
    38. D(H  11,C   2,C   1,H  10)   -180.00 -0.000010    0.01   -179.99   
    39. D(H  12,C   3,C   2,H  11)   -180.00  0.000000   -0.01   -180.01   
    40. D(H  12,C   3,C   2,C   1)     -0.00 -0.000013    0.02      0.02   
    41. D(C   4,C   3,C   2,H  11)      0.00 -0.000008    0.01      0.01   
    42. D(C   4,C   3,C   2,C   1)    180.00 -0.000021    0.03    180.03   
    43. D(H   6,C   4,C   3,C   2)   -180.00  0.000006   -0.01   -180.01   
    44. D(H   5,C   4,C   3,H  12)    119.76 -0.000453    0.19    119.94   
    45. D(H   5,C   4,C   3,C   2)    -60.24 -0.000445    0.17    -60.07   
    46. D(H   7,C   4,C   3,H  12)   -119.76  0.000441   -0.17   -119.92   
    47. D(H   7,C   4,C   3,C   2)     60.24  0.000449   -0.18     60.06   
    48. D(H   6,C   4,C   3,H  12)      0.00 -0.000002    0.01      0.01   
    ----------------------------------------------------------------------------

         *************************************************************
         *                GEOMETRY OPTIMIZATION CYCLE   2            *
         *************************************************************
---------------------------------
CARTESIAN COORDINATES (ANGSTROEM)
---------------------------------
  C     -3.217983   -1.738469    0.009562
  C     -4.380854   -1.072709   -0.007354
  C     -5.671401   -1.762676    0.004083
  C     -6.845924   -1.103968   -0.012007
  C     -8.181795   -1.811948    0.000421
  H     -8.283752   -2.468092   -0.880049
  H     -9.010520   -1.088292   -0.016267
  H     -8.286992   -2.430534    0.907324
  F     -2.041930   -1.088446   -0.000335
  H     -3.166699   -2.831201    0.032424
  H     -4.364017    0.020748   -0.029978
  H     -5.671758   -2.858421    0.027033
  H     -6.844816   -0.008943   -0.034837

----------------------------
CARTESIAN COORDINATES (A.U.)
----------------------------
  NO LB      ZA    FRAG     MASS         X           Y           Z
   0 C     6.0000    0    12.011   -6.081106   -3.285230    0.018070
   1 C     6.0000    0    12.011   -8.278615   -2.027126   -0.013897
   2 C     6.0000    0    12.011  -10.717394   -3.330975    0.007716
   3 C     6.0000    0    12.011  -12.936921   -2.086197   -0.022691
   4 C     6.0000    0    12.011  -15.461352   -3.424085    0.000796
   5 H     1.0000    0     1.008  -15.654022   -4.664019   -1.663052
   6 H     1.0000    0     1.008  -17.027415   -2.056574   -0.030740
   7 H     1.0000    0     1.008  -15.660145   -4.593043    1.714594
   8 F     9.0000    0    18.998   -3.858688   -2.056865   -0.000632
   9 H     1.0000    0     1.008   -5.984195   -5.350195    0.061273
  10 H     1.0000    0     1.008   -8.246798    0.039209   -0.056650
  11 H     1.0000    0     1.008  -10.718069   -5.401632    0.051085
  12 H     1.0000    0     1.008  -12.934827   -0.016899   -0.065833

--------------------------------
INTERNAL COORDINATES (ANGSTROEM)
--------------------------------
 C      0   0   0     0.000000000000     0.00000000     0.00000000
 C      1   0   0     1.340071793324     0.00000000     0.00000000
 C      2   1   0     1.463453257478   122.06725805     0.00000000
 C      3   2   1     1.346721754903   122.57451194   179.96441016
 C      4   3   2     1.511933410831   122.78185997   180.03234095
 H      5   4   3     1.102791430604   110.71580650   299.93131215
 H      5   4   3     1.100337059610   110.93858678   179.99305037
 H      5   4   3     1.102809201978   110.71368008    60.05891432
 F      1   2   3     1.343774064400   121.26819787   180.04864211
 H      1   2   3     1.094173699849   122.48579118     0.00000000
 H      2   1   3     1.093820953879   118.91737684   179.97280109
 H      3   2   1     1.095985187521   118.15201898     0.00000000
 H      4   3   2     1.095263424109   119.23416077     0.00000000

---------------------------
INTERNAL COORDINATES (A.U.)
---------------------------
 C      0   0   0     0.000000000000     0.00000000     0.00000000
 C      1   0   0     2.532368689175     0.00000000     0.00000000
 C      2   1   0     2.765525866429   122.06725805     0.00000000
 C      3   2   1     2.544935295361   122.57451194   179.96441016
 C      4   3   2     2.857140079196   122.78185997   180.03234095
 H      5   4   3     2.083973786678   110.71580650   299.93131215
 H      5   4   3     2.079335697667   110.93858678   179.99305037
 H      5   4   3     2.084007369706   110.71368008    60.05891432
 F      1   2   3     2.539364967581   121.26819787   180.04864211
 H      1   2   3     2.067688635653   122.48579118     0.00000000
 H      2   1   3     2.067022042376   118.91737684   179.97280109
 H      3   2   1     2.071111851249   118.15201898     0.00000000
 H      4   3   2     2.069747916067   119.23416077     0.00000000

------------------------------------------------------------------------------
                   ___                                                        
                  /   \      - P O W E R E D   B Y -                         
                 /     \                                                     
                 |  |  |   _    _      __       _____    __    __             
                 |  |  |  | |  | |    /  \     |  _  \  |  |  /  |          
                  \  \/   | |  | |   /    \    | | | |  |  | /  /          
                 / \  \   | |__| |  /  /\  \   | |_| |  |  |/  /          
                |  |  |   |  __  | /  /__\  \  |    /   |      \           
                |  |  |   | |  | | |   __   |  |    \   |  |\   \          
                \     /   | |  | | |  |  |  |  | |\  \  |  | \   \       
                 \___/    |_|  |_| |__|  |__|  |_| \__\ |__|  \__/        
                                                                              
                      - O R C A' S   B I G   F R I E N D -                    
                                      &                                       
                       - I N T E G R A L  F E E D E R -                       
                                                                              
 v1 FN, 2020, v2 2021                                                         
------------------------------------------------------------------------------


Reading SHARK input file first_job.SHARKINP.tmp ... ok
----------------------
SHARK INTEGRAL PACKAGE
----------------------

Number of atoms                             ...     13
Number of basis functions                   ...    119
Number of shells                            ...     57
Maximum angular momentum                    ...      2
Integral batch strategy                     ... SHARK/LIBINT Hybrid
RI-J (if used) integral strategy            ... SPLIT-RIJ (Revised 2003 algorithm where possible)
Printlevel                                  ...      1
Contraction scheme used                     ... SEGMENTED contraction
Coulomb Range Separation                    ... NOT USED
Exchange Range Separation                   ... NOT USED
Finite Nucleus Model                        ... NOT USED
Auxiliary Coulomb fitting basis             ... AVAILABLE
   # of basis functions in Aux-J            ...    371
   # of shells in Aux-J                     ...    125
   Maximum angular momentum in Aux-J        ...      4
Auxiliary J/K fitting basis                 ... NOT available
Auxiliary Correlation fitting basis         ... NOT available
Auxiliary 'external' fitting basis          ... NOT available
Integral threshold                          ...     2.500000e-11
Primitive cut-off                           ...     2.500000e-12
Primitive pair pre-selection threshold      ...     2.500000e-12

Calculating pre-screening integrals         ... done (  0.1 sec) Dimension = 57
Organizing shell pair data                  ... done (  0.1 sec)
Shell pair information
Total number of shell pairs                 ...      1653
Shell pairs after pre-screening             ...      1513
Total number of primitive shell pairs       ...      5877
Primitive shell pairs kept                  ...      4107
          la=0 lb=0:    489 shell pairs
          la=1 lb=0:    563 shell pairs
          la=1 lb=1:    171 shell pairs
          la=2 lb=0:    171 shell pairs
          la=2 lb=1:    101 shell pairs
          la=2 lb=2:     18 shell pairs

Calculating one electron integrals          ... done (  0.0 sec)
Calculating RI/J V-Matrix + Cholesky decomp.... done (  0.0 sec)
Calculating Nuclear repulsion               ... done (  0.0 sec) ENN=    205.748475453099 Eh

SHARK setup successfully completed in   0.4 seconds

Maximum memory used throughout the entire GTOINT-calculation: 12.7 MB

Diagonalization of the overlap matrix:
Smallest eigenvalue                        ... 1.452e-03
Time for diagonalization                   ...    0.009 sec
Threshold for overlap eigenvalues          ... 1.000e-08
Number of eigenvalues below threshold      ... 0
Time for construction of square roots      ...    0.004 sec
Total time needed                          ...    0.013 sec

-------------------
DFT GRID GENERATION
-------------------

General Integration Accuracy     IntAcc      ... 4.388
Radial Grid Type                 RadialGrid  ... OptM3 with GC (2021)
Angular Grid (max. ang.)         AngularGrid ... 4 (Lebedev-302)
Angular grid pruning method      GridPruning ... 4 (adaptive)
Weight generation scheme         WeightScheme... Becke
Basis function cutoff            BFCut       ... 1.0000e-11
Integration weight cutoff        WCut        ... 1.0000e-14
Angular grids for H and He will be reduced by one unit
Partially contracted basis set               ... off
Rotationally invariant grid construction     ... off

Total number of grid points                  ...    59021
Total number of batches                      ...      928
Average number of points per batch           ...       63
Average number of grid points per atom       ...     4540
Time for grid setup =    2.203 sec

--------------------
COSX GRID GENERATION
--------------------

GRIDX 1
-------
General Integration Accuracy     IntAcc      ... 3.816
Radial Grid Type                 RadialGrid  ... OptM3 with GC (2021)
Angular Grid (max. ang.)         AngularGrid ... 1 (Lebedev-50)
Angular grid pruning method      GridPruning ... 4 (adaptive)
Weight generation scheme         WeightScheme... Becke
Basis function cutoff            BFCut       ... 1.0000e-11
Integration weight cutoff        WCut        ... 1.0000e-14
Angular grids for H and He will be reduced by one unit
Partially contracted basis set               ... on
Rotationally invariant grid construction     ... off

Total number of grid points                  ...     7553
Total number of batches                      ...      124
Average number of points per batch           ...       60
Average number of grid points per atom       ...      581
UseSFitting                                  ... on

GRIDX 2
-------
General Integration Accuracy     IntAcc      ... 4.020
Radial Grid Type                 RadialGrid  ... OptM3 with GC (2021)
Angular Grid (max. ang.)         AngularGrid ... 2 (Lebedev-110)
Angular grid pruning method      GridPruning ... 4 (adaptive)
Weight generation scheme         WeightScheme... Becke
Basis function cutoff            BFCut       ... 1.0000e-11
Integration weight cutoff        WCut        ... 1.0000e-14
Angular grids for H and He will be reduced by one unit
Partially contracted basis set               ... on
Rotationally invariant grid construction     ... off

Total number of grid points                  ...    16369
Total number of batches                      ...      263
[...]
  6 H s       :     0.913894  s :     0.913894
      pz      :     0.014398  p :     0.034920
      px      :     0.009348
      py      :     0.011173
      dz2     :     0.000187  d :     0.004742
      dxz     :     0.001027
      dyz     :     0.001154
      dx2y2   :     0.001838
      dxy     :     0.000536
      f0      :     0.000058  f :     0.000318
      f+1     :     0.000013
      f-1     :     0.000006
      f+2     :     0.000003
      f-2     :     0.000097
      f+3     :     0.000087
      f-3     :     0.000054
  7 H s       :     0.900171  s :     0.900171
      pz      :     0.010630  p :     0.035951
      px      :     0.013340
      py      :     0.011982
      dz2     :     0.001589  d :     0.004916
      dxz     :     0.001164
      dyz     :     0.000740
      dx2y2   :     0.000467
      dxy     :     0.000956
      f0      :     0.000111  f :     0.000325
      f+1     :     0.000033
      f-1     :     0.000028
      f+2     :     0.000043
      f-2     :     0.000077
      f+3     :     0.000021
      f-3     :     0.000014
  8 F s       :     3.923636  s :     3.923636
      pz      :     1.876967  p :     5.293272
      px      :     1.589278
      py      :     1.827027
      dz2     :     0.002280  d :     0.021232
      dxz     :     0.005394
      dyz     :     0.001272
      dx2y2   :     0.006146
      dxy     :     0.006140
      f0      :     0.000224  f :     0.001985
      f+1     :     0.000276
      f-1     :     0.000099
      f+2     :     0.000130
      f-2     :     0.000228
      f+3     :     0.000473
      f-3     :     0.000555
      g0      :     0.000004  g :     0.000062
      g+1     :     0.000008
      g-1     :     0.000002
      g+2     :     0.000004
      g-2     :     0.000007
      g+3     :     0.000000
      g-3     :     0.000007
      g+4     :     0.000013
      g-4     :     0.000017
  9 H s       :     0.884516  s :     0.884516
      pz      :     0.016967  p :     0.037119
      px      :     0.007113
      py      :     0.013039
      dz2     :     0.000288  d :     0.004658
      dxz     :     0.000160
      dyz     :     0.002200
      dx2y2   :     0.000403
      dxy     :     0.001607
      f0      :     0.000066  f :     0.000282
      f+1     :     0.000005
      f-1     :     0.000020
      f+2     :     0.000082
      f-2     :     0.000009
      f+3     :     0.000071
      f-3     :     0.000030
 10 H s       :     0.912989  s :     0.912989
      pz      :     0.015843  p :     0.032409
      px      :     0.009990
      py      :     0.006576
      dz2     :     0.000131  d :     0.004473
      dxz     :     0.000083
      dyz     :     0.002151
      dx2y2   :     0.000339
      dxy     :     0.001769
      f0      :     0.000056  f :     0.000286
      f+1     :     0.000009
      f-1     :     0.000009
      f+2     :     0.000082
      f-2     :     0.000002
      f+3     :     0.000113
      f-3     :     0.000014
 11 H s       :     0.935972  s :     0.935972
      pz      :     0.016250  p :     0.036293
      px      :     0.011708
      py      :     0.008335
      dz2     :     0.000151  d :     0.004660
      dxz     :     0.000102
      dyz     :     0.002194
      dx2y2   :     0.000415
      dxy     :     0.001798
      f0      :     0.000056  f :     0.000288
      f+1     :     0.000007
      f-1     :     0.000011
      f+2     :     0.000082
      f-2     :     0.000003
      f+3     :     0.000108
      f-3     :     0.000021
 12 H s       :     0.921832  s :     0.921832
      pz      :     0.017080  p :     0.038523
      px      :     0.012780
      py      :     0.008663
      dz2     :     0.000165  d :     0.005049
      dxz     :     0.000049
      dyz     :     0.002228
      dx2y2   :     0.000435
      dxy     :     0.002172
      f0      :     0.000056  f :     0.000290
      f+1     :     0.000009
      f-1     :     0.000009
      f+2     :     0.000078
      f-2     :     0.000002
      f+3     :     0.000114
      f-3     :     0.000022


                     *******************************
                     * LOEWDIN POPULATION ANALYSIS *
                     *******************************

----------------------
LOEWDIN ATOMIC CHARGES
----------------------
   0 C :   -0.262302
   1 C :    0.009404
   2 C :    0.022979
   3 C :    0.050913
   4 C :    0.200188
   5 H :   -0.049809
   6 H :   -0.055138
   7 H :   -0.049793
   8 F :    0.382728
   9 H :   -0.085057
  10 H :   -0.050624
  11 H :   -0.049114
  12 H :   -0.064372

-------------------------------
LOEWDIN REDUCED ORBITAL CHARGES
-------------------------------
  0 C s       :     2.647653  s :     2.647653
      pz      :     0.837048  p :     2.642191
      px      :     0.867425
      py      :     0.937718
      dz2     :     0.056634  d :     0.704997
      dxz     :     0.151401
      dyz     :     0.022889
      dx2y2   :     0.263020
      dxy     :     0.211052
      f0      :     0.016711  f :     0.231954
      f+1     :     0.021435
      f-1     :     0.010839
      f+2     :     0.011317
      f-2     :     0.039544
      f+3     :     0.086210
      f-3     :     0.045898
      g0      :     0.001435  g :     0.035508
      g+1     :     0.006200
      g-1     :     0.001340
      g+2     :     0.003079
      g-2     :     0.003762
      g+3     :     0.000052
      g-3     :     0.003575
      g+4     :     0.009291
      g-4     :     0.006775
  1 C s       :     2.612004  s :     2.612004
      pz      :     0.800891  p :     2.769350
      px      :     1.009815
      py      :     0.958644
      dz2     :     0.038420  d :     0.492260
      dxz     :     0.116903
      dyz     :     0.018490
      dx2y2   :     0.174470
      dxy     :     0.143977
      f0      :     0.007303  f :     0.105183
      f+1     :     0.008615
      f-1     :     0.006080
      f+2     :     0.007470
      f-2     :     0.016849
      f+3     :     0.041009
      f-3     :     0.017858
      g0      :     0.000429  g :     0.011799
      g+1     :     0.002000
      g-1     :     0.000655
      g+2     :     0.001236
      g-2     :     0.001165
      g+3     :     0.000075
      g-3     :     0.000947
      g+4     :     0.003103
      g-4     :     0.002191
  2 C s       :     2.601418  s :     2.601418
      pz      :     0.788885  p :     2.740614
      px      :     1.001858
      py      :     0.949871
      dz2     :     0.037437  d :     0.517324
      dxz     :     0.113380
      dyz     :     0.016072
      dx2y2   :     0.206054
      dxy     :     0.144380
      f0      :     0.006424  f :     0.106115
      f+1     :     0.008206
      f-1     :     0.005912
      f+2     :     0.006891
      f-2     :     0.014980
      f+3     :     0.046506
      f-3     :     0.017195
      g0      :     0.000395  g :     0.011551
      g+1     :     0.001849
      g-1     :     0.000572
      g+2     :     0.001286
      g-2     :     0.001190
      g+3     :     0.000082
      g-3     :     0.000808
      g+4     :     0.003396
      g-4     :     0.001974
  3 C s       :     2.612592  s :     2.612592
      pz      :     0.772006  p :     2.719901
      px      :     0.990930
      py      :     0.956965
      dz2     :     0.033984  d :     0.501224
      dxz     :     0.103562
      dyz     :     0.019895
      dx2y2   :     0.201901
      dxy     :     0.141882
      f0      :     0.007160  f :     0.104714
      f+1     :     0.007765
      f-1     :     0.005489
      f+2     :     0.005583
      f-2     :     0.019736
      f+3     :     0.042446
      f-3     :     0.016535
      g0      :     0.000378  g :     0.010656
      g+1     :     0.001739
      g-1     :     0.000532
      g+2     :     0.001264
      g-2     :     0.001117
      g+3     :     0.000027
      g-3     :     0.000813
      g+4     :     0.003121
      g-4     :     0.001665
  4 C s       :     2.558911  s :     2.558911
      pz      :     0.942027  p :     2.789455
      px      :     0.913276
      py      :     0.934152
      dz2     :     0.058524  d :     0.374125
      dxz     :     0.051680
      dyz     :     0.087854
      dx2y2   :     0.067919
      dxy     :     0.108148
      f0      :     0.005908  f :     0.073371
      f+1     :     0.008425
      f-1     :     0.011102
      f+2     :     0.012080
      f-2     :     0.006195
      f+3     :     0.018605
      f-3     :     0.011056
      g0      :     0.000141  g :     0.003950
      g+1     :     0.000596
      g-1     :     0.000147
      g+2     :     0.000479
      g-2     :     0.000350
      g+3     :     0.000078
      g-3     :     0.000494
      g+4     :     0.001161
      g-4     :     0.000503
  5 H s       :     0.784852  s :     0.784852
      pz      :     0.074667  p :     0.191621
      px      :     0.049994
      py      :     0.066960
      dz2     :     0.021103  d :     0.064579
      dxz     :     0.012507
      dyz     :     0.014008
      dx2y2   :     0.006274
      dxy     :     0.010687
      f0      :     0.002296  f :     0.008757
      f+1     :     0.000644
      f-1     :     0.001785
      f+2     :     0.001340
      f-2     :     0.001865
      f+3     :     0.000506
      f-3     :     0.000321
  6 H s       :     0.791377  s :     0.791377
      pz      :     0.054903  p :     0.189951
      px      :     0.068981
      py      :     0.066068
      dz2     :     0.004369  d :     0.064900
      dxz     :     0.011348
      dyz     :     0.013340
      dx2y2   :     0.022794
      dxy     :     0.013050
      f0      :     0.001149  f :     0.008909
      f+1     :     0.000744
      f-1     :     0.000484
      f+2     :     0.000028
      f-2     :     0.001970
      f+3     :     0.002591
      f-3     :     0.001944
  7 H s       :     0.784831  s :     0.784831
      pz      :     0.076018  p :     0.191627
      px      :     0.050036
      py      :     0.065573
      dz2     :     0.020969  d :     0.064579
      dxz     :     0.013455
      dyz     :     0.014787
      dx2y2   :     0.005635
      dxy     :     0.009733
      f0      :     0.002433  f :     0.008756
      f+1     :     0.000792
      f-1     :     0.001761
      f+2     :     0.001283
      f-2     :     0.001813
      f+3     :     0.000410
      f-3     :     0.000264
  8 F s       :     3.471899  s :     3.471899
      pz      :     1.751874  p :     5.078684
      px      :     1.598251
      py      :     1.728559
      dz2     :     0.005153  d :     0.059028
      dxz     :     0.015853
      dyz     :     0.003527
      dx2y2   :     0.017729
      dxy     :     0.016766
      f0      :     0.000934  f :     0.007415
      f+1     :     0.000608
      f-1     :     0.000311
      f+2     :     0.000632
      f-2     :     0.000939
      f+3     :     0.002677
      f-3     :     0.001314
      g0      :     0.000009  g :     0.000247
      g+1     :     0.000038
      g-1     :     0.000009
      g+2     :     0.000014
      g-2     :     0.000018
      g+3     :     0.000001
      g-3     :     0.000035
      g+4     :     0.000076
      g-4     :     0.000045
  9 H s       :     0.828373  s :     0.828373
      pz      :     0.056018  p :     0.185733
      px      :     0.030734
      py      :     0.098981
      dz2     :     0.005183  d :     0.062040
      dxz     :     0.000961
      dyz     :     0.021766
      dx2y2   :     0.015474
      dxy     :     0.018656
      f0      :     0.001158  f :     0.008911
      f+1     :     0.000191
      f-1     :     0.001016
      f+2     :     0.001808
      f-2     :     0.000214
      f+3     :     0.002386
      f-3     :     0.002138
 10 H s       :     0.791263  s :     0.791263
      pz      :     0.051479  p :     0.185626
      px      :     0.039705
      py      :     0.094442
      dz2     :     0.004807  d :     0.064523
      dxz     :     0.000360
      dyz     :     0.020599
      dx2y2   :     0.014381
      dxy     :     0.024377
      f0      :     0.001027  f :     0.009213
      f+1     :     0.000230
      f-1     :     0.000953
      f+2     :     0.001765
      f-2     :     0.000048
      f+3     :     0.003308
      f-3     :     0.001881
 11 H s       :     0.792107  s :     0.792107
      pz      :     0.050376  p :     0.184331
      px      :     0.040057
      py      :     0.093899
      dz2     :     0.004777  d :     0.063637
      dxz     :     0.000441
      dyz     :     0.020104
      dx2y2   :     0.014395
      dxy     :     0.023919
      f0      :     0.000989  f :     0.009039
      f+1     :     0.000227
      f-1     :     0.000931
      f+2     :     0.001693
      f-2     :     0.000066
      f+3     :     0.003252
      f-3     :     0.001880
 12 H s       :     0.798958  s :     0.798958
      pz      :     0.054752  p :     0.192560
      px      :     0.042319
      py      :     0.095489
      dz2     :     0.004798  d :     0.063777
      dxz     :     0.000257
      dyz     :     0.019996
      dx2y2   :     0.014577
      dxy     :     0.024148
      f0      :     0.000997  f :     0.009077
      f+1     :     0.000225
      f-1     :     0.000937
      f+2     :     0.001695
      f-2     :     0.000046
      f+3     :     0.003285
      f-3     :     0.001892


                      *****************************
                      * MAYER POPULATION ANALYSIS *
                      *****************************

  NA   - Mulliken gross atomic population
  ZA   - Total nuclear charge
  QA   - Mulliken gross atomic charge
  VA   - Mayer's total valence
  BVA  - Mayer's bonded valence
  FA   - Mayer's free valence

  ATOM       NA         ZA         QA         VA         BVA        FA
  0 C      5.8751     6.0000     0.1249     3.8412     3.8412     0.0000
  1 C      6.0204     6.0000    -0.0204     3.7254     3.7254     0.0000
  2 C      6.0381     6.0000    -0.0381     3.7250     3.7250    -0.0000
  3 C      6.0588     6.0000    -0.0588     3.7130     3.7130    -0.0000
  4 C      6.1108     6.0000    -0.1108     3.8686     3.8686     0.0000
  5 H      0.9416     1.0000     0.0584     1.0013     1.0013     0.0000
  6 H      0.9539     1.0000     0.0461     1.0057     1.0057     0.0000
  7 H      0.9414     1.0000     0.0586     1.0013     1.0013     0.0000
  8 F      9.2402     9.0000    -0.2402     1.0314     1.0314    -0.0000
  9 H      0.9266     1.0000     0.0734     1.0138     1.0138     0.0000
 10 H      0.9502     1.0000     0.0498     1.0131     1.0131     0.0000
 11 H      0.9772     1.0000     0.0228     1.0170     1.0170     0.0000
 12 H      0.9657     1.0000     0.0343     1.0225     1.0225     0.0000

  Mayer bond orders larger than 0.100000
B(  0-C ,  1-C ) :   1.7125 B(  0-C ,  3-C ) :   0.1025 B(  0-C ,  8-F ) :   0.9920 
B(  0-C ,  9-H ) :   0.9820 B(  1-C ,  2-C ) :   1.0340 B(  1-C , 10-H ) :   0.9557 
B(  2-C ,  3-C ) :   1.6510 B(  2-C , 11-H ) :   0.9696 B(  3-C ,  4-C ) :   0.9534 
B(  3-C , 12-H ) :   0.9752 B(  4-C ,  5-H ) :   0.9601 B(  4-C ,  6-H ) :   0.9751 
B(  4-C ,  7-H ) :   0.9600 

-------
TIMINGS
-------

Total SCF time: 0 days 0 hours 17 min 11 sec 

Total time                  ....    1031.177 sec
Sum of individual times     ....    1027.774 sec  ( 99.7%)

Fock matrix formation       ....    1015.440 sec  ( 98.5%)
  Split-RI-J                ....      51.768 sec  (  5.1% of F)
  Chain of spheres X        ....     873.559 sec  ( 86.0% of F)
  XC integration            ....      89.603 sec  (  8.8% of F)
    Basis function eval.    ....      19.868 sec  ( 22.2% of XC)
    Density eval.           ....      31.181 sec  ( 34.8% of XC)
    XC-Functional eval.     ....       1.386 sec  (  1.5% of XC)
    XC-Potential eval.      ....      34.064 sec  ( 38.0% of XC)
Diagonalization             ....       0.368 sec  (  0.0%)
Density matrix formation    ....       0.120 sec  (  0.0%)
Population analysis         ....       0.186 sec  (  0.0%)
Initial guess               ....       0.368 sec  (  0.0%)
Orbital Transformation      ....       0.000 sec  (  0.0%)
Orbital Orthonormalization  ....       0.000 sec  (  0.0%)
DIIS solution               ....       0.133 sec  (  0.0%)
SOSCF solution              ....       1.424 sec  (  0.1%)
Grid generation             ....       9.735 sec  (  0.9%)

Maximum memory used throughout the entire SCF-calculation: 472.2 MB


-------------------------------------------------------------------------------
                          DFT DISPERSION CORRECTION                            
                                                                               
                                 DFTD4 V2.5                                    
-------------------------------------------------------------------------------
The B3LYP functional is recognized
Active option DFTDOPT                   ...         5   

Starting D4
-------------------------   ----------------
Dispersion correction           -0.013271479
-------------------------   ----------------


-------------------------   --------------------
FINAL SINGLE POINT ENERGY      -294.532235506655
-------------------------   --------------------


                            ***************************************
                            *     ORCA property calculations      *
                            ***************************************

                                    ---------------------
                                    Active property flags
                                    ---------------------
   (+) Dipole Moment


------------------------------------------------------------------------------
                       ORCA ELECTRIC PROPERTIES CALCULATION
------------------------------------------------------------------------------

Dipole Moment Calculation                       ... on
Quadrupole Moment Calculation                   ... off
Polarizability Calculation                      ... off
GBWName                                         ... second_job.gbw
Electron density                                ... second_job.scfp
The origin for moment calculation is the CENTER OF MASS  = (-9.318297, -2.689328 -0.001369)

-------------
DIPOLE MOMENT
-------------
                                X             Y             Z
Electronic contribution:     12.46582       1.61313      -0.00519
Nuclear contribution   :    -13.10980      -1.89173       0.00955
                        -----------------------------------------
Total Dipole Moment    :     -0.64398      -0.27860       0.00436
                        -----------------------------------------
Magnitude (a.u.)       :      0.70168
Magnitude (Debye)      :      1.78352



--------------------
Rotational spectrum 
--------------------
 
Rotational constants in cm-1:     0.890049     0.039290     0.037897 
Rotational constants in MHz : 26682.989530  1177.873154  1136.110222 

 Dipole components along the rotational axes: 
x,y,z [a.u.] :     0.660750    -0.236134     0.000059 
x,y,z [Debye]:     1.679493    -0.600205     0.000149 

 

Timings for individual modules:

Sum of individual times         ...     1036.712 sec (=  17.279 min)
GTO integral calculation        ...        5.275 sec (=   0.088 min)   0.5 %
SCF iterations                  ...     1031.437 sec (=  17.191 min)  99.5 %



                             ****ORCA TERMINATED NORMALLY****
TOTAL RUN TIME: 0 days 0 hours 37 minutes 17 seconds 16 msec
