
                                 *****************
                                 * O   R   C   A *
                                 *****************

                                            #,                                       
                                            ###                                      
                                            ####                                     
                                            #####                                    
                                            ######                                   
                                           ########,                                 
                                     ,,################,,,,,                         
                               ,,#################################,,                 
                          ,,##########################################,,             
                       ,#########################################, ''#####,          
                    ,#############################################,,   '####,        
                  ,##################################################,,,,####,       
                ,###########''''           ''''###############################       
              ,#####''   ,,,,##########,,,,          '''####'''          '####       
            ,##' ,,,,###########################,,,                        '##       
           ' ,,###''''                  '''############,,,                           
         ,,##''                                '''############,,,,        ,,,,,,###''
      ,#''                                            '''#######################'''  
     '                                                          ''''####''''         
             ,#######,   #######,   ,#######,      ##                                
            ,#'     '#,  ##    ##  ,#'     '#,    #''#        ######   ,####,        
            ##       ##  ##   ,#'  ##            #'  '#       #        #'  '#        
            ##       ##  #######   ##           ,######,      #####,   #    #        
            '#,     ,#'  ##    ##  '#,     ,#' ,#      #,         ##   #,  ,#        
             '#######'   ##     ##  '#######'  #'      '#     #####' # '####'        



                  #######################################################
                  #                        -***-                        #
                  #          Department of theory and spectroscopy      #
                  #    Directorship and core code : Frank Neese         #
                  #        Max Planck Institute fuer Kohlenforschung    #
                  #                Kaiser Wilhelm Platz 1               #
                  #                 D-45470 Muelheim/Ruhr               #
                  #                      Germany                        #
                  #                                                     #
                  #                  All rights reserved                #
                  #                        -***-                        #
                  #######################################################



                         Program Version 5.0.4 -  RELEASE  -

 With contributions from (in alphabetic order):
   Daniel Aravena         : Magnetic Suceptibility
   Michael Atanasov       : Ab Initio Ligand Field Theory (pilot matlab implementation)
   Alexander A. Auer      : GIAO ZORA, VPT2 properties, NMR spectrum
   Ute Becker             : Parallelization
   Giovanni Bistoni       : ED, misc. LED, open-shell LED, HFLD
   Martin Brehm           : Molecular dynamics
   Dmytro Bykov           : SCF Hessian
   Vijay G. Chilkuri      : MRCI spin determinant printing, contributions to CSF-ICE
   Dipayan Datta          : RHF DLPNO-CCSD density
   Achintya Kumar Dutta   : EOM-CC, STEOM-CC
   Dmitry Ganyushin       : Spin-Orbit,Spin-Spin,Magnetic field MRCI
   Miquel Garcia          : C-PCM and meta-GGA Hessian, CC/C-PCM, Gaussian charge scheme
   Yang Guo               : DLPNO-NEVPT2, F12-NEVPT2, CIM, IAO-localization
   Andreas Hansen         : Spin unrestricted coupled pair/coupled cluster methods
   Benjamin Helmich-Paris : MC-RPA, TRAH-SCF, COSX integrals
   Lee Huntington         : MR-EOM, pCC
   Robert Izsak           : Overlap fitted RIJCOSX, COSX-SCS-MP3, EOM
   Marcus Kettner         : VPT2
   Christian Kollmar      : KDIIS, OOCD, Brueckner-CCSD(T), CCSD density, CASPT2, CASPT2-K
   Simone Kossmann        : Meta GGA functionals, TD-DFT gradient, OOMP2, MP2 Hessian
   Martin Krupicka        : Initial AUTO-CI
   Lucas Lang             : DCDCAS
   Marvin Lechner         : AUTO-CI (C++ implementation), FIC-MRCC
   Dagmar Lenk            : GEPOL surface, SMD
   Dimitrios Liakos       : Extrapolation schemes; Compound Job, initial MDCI parallelization
   Dimitrios Manganas     : Further ROCIS development; embedding schemes
   Dimitrios Pantazis     : SARC Basis sets
   Anastasios Papadopoulos: AUTO-CI, single reference methods and gradients
   Taras Petrenko         : DFT Hessian,TD-DFT gradient, ASA, ECA, R-Raman, ABS, FL, XAS/XES, NRVS
   Peter Pinski           : DLPNO-MP2, DLPNO-MP2 Gradient
   Christoph Reimann      : Effective Core Potentials
   Marius Retegan         : Local ZFS, SOC
   Christoph Riplinger    : Optimizer, TS searches, QM/MM, DLPNO-CCSD(T), (RO)-DLPNO pert. Triples
   Tobias Risthaus        : Range-separated hybrids, TD-DFT gradient, RPA, STAB
   Michael Roemelt        : Original ROCIS implementation
   Masaaki Saitow         : Open-shell DLPNO-CCSD energy and density
   Barbara Sandhoefer     : DKH picture change effects
   Avijit Sen             : IP-ROCIS
   Kantharuban Sivalingam : CASSCF convergence, NEVPT2, FIC-MRCI
   Bernardo de Souza      : ESD, SOC TD-DFT
   Georgi Stoychev        : AutoAux, RI-MP2 NMR, DLPNO-MP2 response
   Willem Van den Heuvel  : Paramagnetic NMR
   Boris Wezisla          : Elementary symmetry handling
   Frank Wennmohs         : Technical directorship


 We gratefully acknowledge several colleagues who have allowed us to
 interface, adapt or use parts of their codes:
   Stefan Grimme, W. Hujo, H. Kruse, P. Pracht,  : VdW corrections, initial TS optimization,
                  C. Bannwarth, S. Ehlert          DFT functionals, gCP, sTDA/sTD-DF
   Ed Valeev, F. Pavosevic, A. Kumar             : LibInt (2-el integral package), F12 methods
   Garnet Chan, S. Sharma, J. Yang, R. Olivares  : DMRG
   Ulf Ekstrom                                   : XCFun DFT Library
   Mihaly Kallay                                 : mrcc  (arbitrary order and MRCC methods)
   Jiri Pittner, Ondrej Demel                    : Mk-CCSD
   Frank Weinhold                                : gennbo (NPA and NBO analysis)
   Christopher J. Cramer and Donald G. Truhlar   : smd solvation model
   Lars Goerigk                                  : TD-DFT with DH, B97 family of functionals
   V. Asgeirsson, H. Jonsson                     : NEB implementation
   FAccTs GmbH                                   : IRC, NEB, NEB-TS, DLPNO-Multilevel, CI-OPT
                                                   MM, QMMM, 2- and 3-layer-ONIOM, Crystal-QMMM,
                                                   LR-CPCM, SF, NACMEs, symmetry and pop. for TD-DFT,
                                                   nearIR, NL-DFT gradient (VV10), updates on ESD,
                                                   ML-optimized integration grids
   S Lehtola, MJT Oliveira, MAL Marques          : LibXC Library
   Liviu Ungur et al                             : ANISO software


 Your calculation uses the libint2 library for the computation of 2-el integrals
 For citations please refer to: http://libint.valeyev.net

 Your ORCA version has been built with support for libXC version: 5.1.0
 For citations please refer to: https://tddft.org/programs/libxc/

 This ORCA versions uses:
   CBLAS   interface :  Fast vector & matrix operations
   LAPACKE interface :  Fast linear algebra routines
   Shared memory     :  Shared parallel matrices


================================================================================

----- Orbital basis set information -----
Your calculation utilizes the basis: def2-QZVP
   F. Weigend and R. Ahlrichs, Phys. Chem. Chem. Phys. 7, 3297 (2005).

----- AuxJ basis set information -----
Your calculation utilizes the auxiliary basis: def2/J
   F. Weigend, Phys. Chem. Chem. Phys. 8, 1057 (2006).

================================================================================
                                        WARNINGS
                       Please study these warnings very carefully!
================================================================================


INFO   : the flag for use of the SHARK integral package has been found!


WARNING: TRAH does not support fractional occupations!
  ===> : Turning TRAH off
================================================================================
                                       INPUT FILE
================================================================================
NAME = anilin_fod.inp
|  1> !B3LYP DEF2-QZVP
|  2> 
|  3> %scf
|  4> smeartemp 5000
|  5> convergence tight
|  6> end
|  7> 
|  8> * xyz 0 1
|  9>   C   -4.88569336155230      2.98207060676121      0.04333537261272
| 10>   C   -6.14959695789773      2.35864301241116      0.02758592588736
| 11>   C   -6.25559380286015      0.96845232728990     -0.00121869885868
| 12>   C   -5.11290643775582      0.16234415122468     -0.01440284580436
| 13>   C   -3.85586007858743      0.77497453451715      0.00208204091935
| 14>   C   -3.73800009771254      2.16417133781313      0.03090801634500
| 15>   H   -7.05256446988853      2.97652953111245      0.03476026878305
| 16>   H   -7.24815752893036      0.50936420781894     -0.01176333836965
| 17>   H   -5.20066374355790     -0.92621478272232     -0.03568755561573
| 18>   H   -2.94935247147236      0.16323446923219     -0.00589977089820
| 19>   H   -2.74782466200470      2.62955680400795      0.04054469739011
| 20>   N   -4.77400026474504      4.36582607320833      0.02173325533785
| 21>   H   -5.57985384924347      4.88619583261605      0.34871705822918
| 22>   H   -3.89604227379165      4.75045189470918      0.35073557404198
| 23> **                         ****END OF INPUT****
================================================================================

                       ****************************
                       * Single Point Calculation *
                       ****************************

---------------------------------
CARTESIAN COORDINATES (ANGSTROEM)
---------------------------------
  C     -4.885693    2.982071    0.043335
  C     -6.149597    2.358643    0.027586
  C     -6.255594    0.968452   -0.001219
  C     -5.112906    0.162344   -0.014403
  C     -3.855860    0.774975    0.002082
  C     -3.738000    2.164171    0.030908
  H     -7.052564    2.976530    0.034760
  H     -7.248158    0.509364   -0.011763
  H     -5.200664   -0.926215   -0.035688
  H     -2.949352    0.163234   -0.005900
  H     -2.747825    2.629557    0.040545
  N     -4.774000    4.365826    0.021733
  H     -5.579854    4.886196    0.348717
  H     -3.896042    4.750452    0.350736

----------------------------
CARTESIAN COORDINATES (A.U.)
----------------------------
  NO LB      ZA    FRAG     MASS         X           Y           Z
   0 C     6.0000    0    12.011   -9.232622    5.635297    0.081892
   1 C     6.0000    0    12.011  -11.621054    4.457189    0.052130
   2 C     6.0000    0    12.011  -11.821359    1.830110   -0.002303
   3 C     6.0000    0    12.011   -9.661993    0.306786   -0.027217
   4 C     6.0000    0    12.011   -7.286520    1.464490    0.003934
   5 C     6.0000    0    12.011   -7.063796    4.089691    0.058408
   6 H     1.0000    0     1.008  -13.327415    5.624826    0.065687
   7 H     1.0000    0     1.008  -13.697033    0.962559   -0.022229
   8 H     1.0000    0     1.008   -9.827830   -1.750292   -0.067440
   9 H     1.0000    0     1.008   -5.573468    0.308468   -0.011149
  10 H     1.0000    0     1.008   -5.192636    4.969142    0.076618
  11 N     7.0000    0    14.007   -9.021553    8.250216    0.041070
  12 H     1.0000    0     1.008  -10.544396    9.233572    0.658980
  13 H     1.0000    0     1.008   -7.362453    8.977053    0.662794

--------------------------------
INTERNAL COORDINATES (ANGSTROEM)
--------------------------------
 C      0   0   0     0.000000000000     0.00000000     0.00000000
 C      1   0   0     1.409383663636     0.00000000     0.00000000
 C      2   1   0     1.394523280030   120.62124987     0.00000000
 C      3   2   1     1.398470102512   120.84505814     0.03409859
 C      4   3   2     1.398482494392   118.80549324     0.00000000
 C      5   4   3     1.394485449992   120.83857368     0.00000000
 H      2   1   3     1.094159745604   119.35417300   180.20519390
 H      3   2   1     1.093643379339   119.18675301   179.92817755
 H      4   3   2     1.092298007079   120.59622984   179.92176950
 H      5   4   3     1.093638723963   119.99578905   179.88486531
 H      6   5   4     1.094131569440   120.02673924   180.18119945
 N      1   2   3     1.388423995135   120.85195132   177.58252821
 H     12   1   2     1.013460948191   116.27916399    22.84360398
 H     12   1   2     1.013405043483   116.28935887   159.57318851

---------------------------
INTERNAL COORDINATES (A.U.)
---------------------------
 C      0   0   0     0.000000000000     0.00000000     0.00000000
 C      1   0   0     2.663349141895     0.00000000     0.00000000
 C      2   1   0     2.635267086635   120.62124987     0.00000000
 C      3   2   1     2.642725500224   120.84505814     0.03409859
 C      4   3   2     2.642748917485   118.80549324     0.00000000
 C      5   4   3     2.635195598222   120.83857368     0.00000000
 H      2   1   3     2.067662265952   119.35417300   180.20519390
 H      3   2   1     2.066686475127   119.18675301   179.92817755
 H      4   3   2     2.064144090008   120.59622984   179.92176950
 H      5   4   3     2.066677677742   119.99578905   179.88486531
 H      6   5   4     2.067609020720   120.02673924   180.18119945
 N      1   2   3     2.623741108571   120.85195132   177.58252821
 H     12   1   2     1.915163639505   116.27916399    22.84360398
 H     12   1   2     1.915057994917   116.28935887   159.57318851

---------------------
BASIS SET INFORMATION
---------------------
There are 3 groups of distinct atoms

 Group   1 Type C   : 15s8p3d2f1g contracted to 7s4p3d2f1g pattern {8211111/5111/111/11/1}
 Group   2 Type H   : 7s3p2d1f contracted to 4s3p2d1f pattern {4111/111/11/1}
 Group   3 Type N   : 15s8p3d2f1g contracted to 7s4p3d2f1g pattern {8211111/5111/111/11/1}

Atom   0C    basis set group =>   1
Atom   1C    basis set group =>   1
Atom   2C    basis set group =>   1
Atom   3C    basis set group =>   1
Atom   4C    basis set group =>   1
Atom   5C    basis set group =>   1
Atom   6H    basis set group =>   2
Atom   7H    basis set group =>   2
Atom   8H    basis set group =>   2
Atom   9H    basis set group =>   2
Atom  10H    basis set group =>   2
Atom  11N    basis set group =>   3
Atom  12H    basis set group =>   2
Atom  13H    basis set group =>   2
---------------------------------
AUXILIARY/J BASIS SET INFORMATION
---------------------------------
There are 3 groups of distinct atoms

 Group   1 Type C   : 12s5p4d2f1g contracted to 6s4p3d1f1g pattern {711111/2111/211/2/1}
 Group   2 Type H   : 5s2p1d contracted to 3s1p1d pattern {311/2/1}
 Group   3 Type N   : 12s5p4d2f1g contracted to 6s4p3d1f1g pattern {711111/2111/211/2/1}

Atom   0C    basis set group =>   1
Atom   1C    basis set group =>   1
Atom   2C    basis set group =>   1
Atom   3C    basis set group =>   1
Atom   4C    basis set group =>   1
Atom   5C    basis set group =>   1
Atom   6H    basis set group =>   2
Atom   7H    basis set group =>   2
Atom   8H    basis set group =>   2
Atom   9H    basis set group =>   2
Atom  10H    basis set group =>   2
Atom  11N    basis set group =>   3
Atom  12H    basis set group =>   2
Atom  13H    basis set group =>   2
------------------------------------------------------------------------------
                           ORCA GTO INTEGRAL CALCULATION
                           -- RI-GTO INTEGRALS CHOSEN --
------------------------------------------------------------------------------
------------------------------------------------------------------------------
                   ___                                                        
                  /   \      - P O W E R E D   B Y -                         
                 /     \                                                     
                 |  |  |   _    _      __       _____    __    __             
                 |  |  |  | |  | |    /  \     |  _  \  |  |  /  |          
                  \  \/   | |  | |   /    \    | | | |  |  | /  /          
                 / \  \   | |__| |  /  /\  \   | |_| |  |  |/  /          
                |  |  |   |  __  | /  /__\  \  |    /   |      \           
                |  |  |   | |  | | |   __   |  |    \   |  |\   \          
                \     /   | |  | | |  |  |  |  | |\  \  |  | \   \       
                 \___/    |_|  |_| |__|  |__|  |_| \__\ |__|  \__/        
                                                                              
                      - O R C A' S   B I G   F R I E N D -                    
                                      &                                       
                       - I N T E G R A L  F E E D E R -                       
                                                                              
 v1 FN, 2020, v2 2021                                                         
------------------------------------------------------------------------------


Reading SHARK input file anilin_fod.SHARKINP.tmp ... ok
----------------------
SHARK INTEGRAL PACKAGE
----------------------

Number of atoms                             ...     14
Number of basis functions                   ...    609
Number of shells                            ...    189
Maximum angular momentum                    ...      4
Integral batch strategy                     ... SHARK/LIBINT Hybrid
RI-J (if used) integral strategy            ... SPLIT-RIJ (Revised 2003 algorithm where possible)
Printlevel                                  ...      1
Contraction scheme used                     ... SEGMENTED contraction
Coulomb Range Separation                    ... NOT USED
Exchange Range Separation                   ... NOT USED
Finite Nucleus Model                        ... NOT USED
Auxiliary Coulomb fitting basis             ... AVAILABLE
   # of basis functions in Aux-J            ...    420
   # of shells in Aux-J                     ...    140
   Maximum angular momentum in Aux-J        ...      4
Auxiliary J/K fitting basis                 ... NOT available
Auxiliary Correlation fitting basis         ... NOT available
Auxiliary 'external' fitting basis          ... NOT available
Integral threshold                          ...     2.500000e-11
Primitive cut-off                           ...     2.500000e-12
Primitive pair pre-selection threshold      ...     2.500000e-12

Calculating pre-screening integrals         ... done (  2.0 sec) Dimension = 189
Organizing shell pair data                  ... done (  2.0 sec)
Shell pair information
Total number of shell pairs                 ...     17955
Shell pairs after pre-screening             ...     15656
Total number of primitive shell pairs       ...     43680
Primitive shell pairs kept                  ...     29852
          la=0 lb=0:   2468 shell pairs
          la=1 lb=0:   3337 shell pairs
          la=1 lb=1:   1135 shell pairs
          la=2 lb=0:   2288 shell pairs
          la=2 lb=1:   1546 shell pairs
          la=2 lb=2:    542 shell pairs
          la=3 lb=0:   1374 shell pairs
          la=3 lb=1:    917 shell pairs
          la=3 lb=2:    638 shell pairs
          la=3 lb=3:    201 shell pairs
          la=4 lb=0:    498 shell pairs
          la=4 lb=1:    322 shell pairs
          la=4 lb=2:    224 shell pairs
          la=4 lb=3:    138 shell pairs
          la=4 lb=4:     28 shell pairs

Calculating one electron integrals          ... done (  0.5 sec)
Calculating RI/J V-Matrix + Cholesky decomp.... done (  0.0 sec)
Calculating Nuclear repulsion               ... done (  0.0 sec) ENN=    270.631545540734 Eh

SHARK setup successfully completed in  12.2 seconds

Maximum memory used throughout the entire GTOINT-calculation: 522.0 MB
-------------------------------------------------------------------------------
                                 ORCA SCF
-------------------------------------------------------------------------------

------------
SCF SETTINGS
------------
Hamiltonian:
 Density Functional     Method          .... DFT(GTOs)
 Exchange Functional    Exchange        .... B88
   X-Alpha parameter    XAlpha          ....  0.666667
   Becke's b parameter  XBeta           ....  0.004200
 Correlation Functional Correlation     .... LYP
 LDA part of GGA corr.  LDAOpt          .... VWN-5
 Gradients option       PostSCFGGA      .... off
 Hybrid DFT is turned on
   Fraction HF Exchange ScalHFX         ....  0.200000
   Scaling of DF-GGA-X  ScalDFX         ....  0.720000
   Scaling of DF-GGA-C  ScalDFC         ....  0.810000
   Scaling of DF-LDA-C  ScalLDAC        ....  1.000000
   Perturbative correction              ....  0.000000
   Density functional embedding theory  .... OFF
   NL short-range parameter             ....  4.800000
 RI-approximation to the Coulomb term is turned on
   Number of AuxJ basis functions       .... 420
   RIJ-COSX (HFX calculated with COS-X)).... on


General Settings:
 Integral files         IntName         .... anilin_fod
 Hartree-Fock type      HFTyp           .... RHF
 Total Charge           Charge          ....    0
 Multiplicity           Mult            ....    1
 Number of Electrons    NEL             ....   50
 Basis Dimension        Dim             ....  609
 Nuclear Repulsion      ENuc            ....    270.6315455407 Eh

Convergence Acceleration:
 DIIS                   CNVDIIS         .... on
   Start iteration      DIISMaxIt       ....    12
   Startup error        DIISStart       ....  0.200000
   # of expansion vecs  DIISMaxEq       ....     5
   Bias factor          DIISBfac        ....   1.050
   Max. coefficient     DIISMaxC        ....  10.000
 Trust-Rad. Augm. Hess. CNVTRAH         .... off
 SOSCF                  CNVSOSCF        .... on
   Start iteration      SOSCFMaxIt      ....   150
   Startup grad/error   SOSCFStart      ....  0.003300
 Level Shifting         CNVShift        .... on
   Level shift para.    LevelShift      ....    0.2500
   Turn off err/grad.   ShiftErr        ....    0.0010
 Zerner damping         CNVZerner       .... off
 Static damping         CNVDamp         .... on
   Fraction old density DampFac         ....    0.7000
   Max. Damping (<1)    DampMax         ....    0.9800
   Min. Damping (>=0)   DampMin         ....    0.0000
   Turn off err/grad.   DampErr         ....    0.1000
 Fernandez-Rico         CNVRico         .... off

SCF Procedure:
 Maximum # iterations   MaxIter         ....   125
 SCF integral mode      SCFMode         .... Direct
   Integral package                     .... SHARK and LIBINT hybrid scheme
 Reset frequency        DirectResetFreq ....    20
 Integral Threshold     Thresh          ....  2.500e-11 Eh
 Primitive CutOff       TCut            ....  2.500e-12 Eh

Convergence Tolerance:
 Convergence Check Mode ConvCheckMode   .... Total+1el-Energy
 Convergence forced     ConvForced      .... 0
 Energy Change          TolE            ....  1.000e-08 Eh
 1-El. energy change                    ....  1.000e-05 Eh
 Orbital Gradient       TolG            ....  1.000e-05
 Orbital Rotation angle TolX            ....  1.000e-05
 DIIS Error             TolErr          ....  5.000e-07


Diagonalization of the overlap matrix:
Smallest eigenvalue                        ... 6.827e-06
Time for diagonalization                   ...    0.332 sec
Threshold for overlap eigenvalues          ... 1.000e-08
Number of eigenvalues below threshold      ... 0
Time for construction of square roots      ...    0.168 sec
Total time needed                          ...    0.563 sec

Time for model grid setup =    1.360 sec

------------------------------
INITIAL GUESS: MODEL POTENTIAL
------------------------------
Loading Hartree-Fock densities                     ... done
Calculating cut-offs                               ... done
Initializing the effective Hamiltonian             ... done
Setting up the integral package (SHARK)            ... done
Starting the Coulomb interaction                   ... done (   3.6 sec)
Reading the grid                                   ... done
Mapping shells                                     ... done
Starting the XC term evaluation                    ... done (   3.6 sec)
  promolecular density results
     # of electrons  =     49.994993537
     EX              =    -39.489892797
     EC              =     -1.657603529
     EX+EC           =    -41.147496326
Transforming the Hamiltonian                       ... done (   0.1 sec)
Diagonalizing the Hamiltonian                      ... done (   0.1 sec)
Back transforming the eigenvectors                 ... done (   0.0 sec)
Now organizing SCF variables                       ... done
                      ------------------
                      INITIAL GUESS DONE (   8.9 sec)
                      ------------------
-------------------
DFT GRID GENERATION
-------------------

General Integration Accuracy     IntAcc      ... 4.388
Radial Grid Type                 RadialGrid  ... OptM3 with GC (2021)
Angular Grid (max. ang.)         AngularGrid ... 4 (Lebedev-302)
Angular grid pruning method      GridPruning ... 4 (adaptive)
Weight generation scheme         WeightScheme... Becke
Basis function cutoff            BFCut       ... 1.0000e-11
Integration weight cutoff        WCut        ... 1.0000e-14
Angular grids for H and He will be reduced by one unit
Partially contracted basis set               ... off
Rotationally invariant grid construction     ... off

Total number of grid points                  ...    66555
Total number of batches                      ...     1047
Average number of points per batch           ...       63
Average number of grid points per atom       ...     4754
Time for grid setup =    6.156 sec

--------------------
COSX GRID GENERATION
--------------------

GRIDX 1
-------
General Integration Accuracy     IntAcc      ... 3.816
Radial Grid Type                 RadialGrid  ... OptM3 with GC (2021)
Angular Grid (max. ang.)         AngularGrid ... 1 (Lebedev-50)
Angular grid pruning method      GridPruning ... 4 (adaptive)
Weight generation scheme         WeightScheme... Becke
Basis function cutoff            BFCut       ... 1.0000e-11
Integration weight cutoff        WCut        ... 1.0000e-14
Angular grids for H and He will be reduced by one unit
Partially contracted basis set               ... on
Rotationally invariant grid construction     ... off

Total number of grid points                  ...     8537
Total number of batches                      ...      140
Average number of points per batch           ...       60
Average number of grid points per atom       ...      610
UseSFitting                                  ... on

GRIDX 2
-------
General Integration Accuracy     IntAcc      ... 4.020
Radial Grid Type                 RadialGrid  ... OptM3 with GC (2021)
Angular Grid (max. ang.)         AngularGrid ... 2 (Lebedev-110)
Angular grid pruning method      GridPruning ... 4 (adaptive)
Weight generation scheme         WeightScheme... Becke
Basis function cutoff            BFCut       ... 1.0000e-11
Integration weight cutoff        WCut        ... 1.0000e-14
Angular grids for H and He will be reduced by one unit
Partially contracted basis set               ... on
Rotationally invariant grid construction     ... off

Total number of grid points                  ...    20167
Total number of batches                      ...      321
Average number of points per batch           ...       62
Average number of grid points per atom       ...     1441
UseSFitting                                  ... on

GRIDX 3
-------
General Integration Accuracy     IntAcc      ... 4.338
Radial Grid Type                 RadialGrid  ... OptM3 with GC (2021)
Angular Grid (max. ang.)         AngularGrid ... 3 (Lebedev-194)
Angular grid pruning method      GridPruning ... 4 (adaptive)
Weight generation scheme         WeightScheme... Becke
Basis function cutoff            BFCut       ... 1.0000e-11
Integration weight cutoff        WCut        ... 1.0000e-14
Angular grids for H and He will be reduced by one unit
Partially contracted basis set               ... on
Rotationally invariant grid construction     ... off

Total number of grid points                  ...    43636
Total number of batches                      ...      688
Average number of points per batch           ...       63
Average number of grid points per atom       ...     3117
UseSFitting                                  ... on

Time for X-Grid setup             =   13.193 sec


Warning: Fractional occupation numbers cannot be used with CNVRico or SOSCF

--------------
SCF ITERATIONS
--------------
ITER       Energy         Delta-E        Max-DP      RMS-DP      [F,P]     Damp
               ***  Starting incremental Fock matrix formation  ***
  0   -287.3211701225   0.000000000000 0.02870914  0.00035661  0.2867149 0.7000
  1   -287.4301119956  -0.108941873149 0.02893050  0.00034602  0.1323265 0.7000
                               ***Turning on DIIS***
  2   -287.4761081679  -0.045996172275 0.05968964  0.00057969  0.0419333 0.0000
  3   -287.5381663132  -0.062058145272 0.02514560  0.00024233  0.0689594 0.0000
  4   -287.5552329351  -0.017066621941 0.00980714  0.00013089  0.0076352 0.0000
  5   -287.5558628247  -0.000629889515 0.00534026  0.00005231  0.0050994 0.0000
   ****WARNING: CANNOT OPEN GBW FILE: anilin_fod.gbw****
  6   -287.5559092649  -0.000046440234 0.00239344  0.00002079  0.0019731 0.0000
  7   -287.5559201849  -0.000010919968 0.00465454  0.00003461  0.0003410 0.0000
               *** Restarting incremental Fock matrix formation ***
                                   *** Resetting DIIS ***
  8   -287.5560141072  -0.000093922351 0.00046262  0.00000810  0.0002013 0.0000
  9   -287.5560138083   0.000000298866 0.00010467  0.00000120  0.0004352 0.0000
 10   -287.5560144085  -0.000000600118 0.00003342  0.00000033  0.0000467 0.0000
 11   -287.5560144127  -0.000000004236 0.00001899  0.00000020  0.0000261 0.0000
 12   -287.5560144165  -0.000000003763 0.00001941  0.00000019  0.0000078 0.0000
 13   -287.5560144206  -0.000000004149 0.00002695  0.00000030  0.0000029 0.0000
                            ***DIIS convergence achieved***
Fermi smearing:E(HOMO(Eh)) = -0.207402 MUE = -0.112587 gap=   5.372 eV

N_FOD =  0.010686

               *****************************************************
               *                     SUCCESS                       *
               *           SCF CONVERGED AFTER  14 CYCLES          *
               *****************************************************

Fermi smearing:E(HOMO(Eh)) = -0.207402 MUE = -0.112587 gap=   5.372 eV

N_FOD =  0.010686
Old exchange energy                            =     -8.031894472 Eh
New exchange energy                            =     -8.031896498 Eh
Exchange energy change after final integration =     -0.000002026 Eh
Total energy after final integration           =   -287.556016451 Eh
Final COS-X integration done in                =   424.425 sec

----------------
TOTAL SCF ENERGY
----------------

Total Energy       :         -287.55601645 Eh           -7824.79701 eV

Components:
Nuclear Repulsion  :          270.63154554 Eh            7364.25875 eV
Electronic Energy  :         -558.18756199 Eh          -15189.05576 eV
One Electron Energy:         -923.18326127 Eh          -25121.09367 eV
Two Electron Energy:          364.99569928 Eh            9932.03791 eV
Max COSX asymmetry :            0.00000098 Eh               0.00003 eV

Virial components:
Potential Energy   :         -573.61665587 Eh          -15608.90275 eV
Kinetic Energy     :          286.06063942 Eh            7784.10573 eV
Virial Ratio       :            2.00522748


DFT components:
N(Alpha)           :       25.000013499136 electrons
N(Beta)            :       25.000013499136 electrons
N(Total)           :       50.000026998273 electrons
E(X)               :      -31.919647816855 Eh       
E(C)               :       -1.964470430936 Eh       
E(XC)              :      -33.884118247791 Eh       
DFET-embed. en.    :        0.000000000000 Eh       

---------------
SCF CONVERGENCE
---------------

  Last Energy change         ...   -4.7643e-09  Tolerance :   1.0000e-08
  Last MAX-Density change    ...    0.0000e+00  Tolerance :   1.0000e-07
  Last RMS-Density change    ...    0.0000e+00  Tolerance :   5.0000e-09
  Last DIIS Error            ...    7.2472e-07  Tolerance :   5.0000e-07

             **** THE GBW FILE WAS UPDATED (anilin_fod.gbw) ****
             **** DENSITY anilin_fod.scfp WAS UPDATED ****
             **** ENERGY FILE WAS UPDATED (anilin_fod.en.tmp) ****
             **** THE GBW FILE WAS UPDATED (anilin_fod.gbw) ****
             **** DENSITY anilin_fod.scfp WAS UPDATED ****
----------------
ORBITAL ENERGIES
----------------

  NO   OCC          E(Eh)            E(eV) 
   0   2.0000     -14.325120      -389.8063 
   1   2.0000     -10.216713      -278.0109 
   2   2.0000     -10.173609      -276.8380 
   3   2.0000     -10.173596      -276.8376 
   4   2.0000     -10.169073      -276.7145 
   5   2.0000     -10.169057      -276.7141 
   6   2.0000     -10.163400      -276.5602 
   7   2.0000      -0.920685       -25.0531 
   8   2.0000      -0.832062       -22.6416 
   9   2.0000      -0.739447       -20.1214 
  10   2.0000      -0.721413       -19.6306 
  11   2.0000      -0.608192       -16.5498 
  12   2.0000      -0.595781       -16.2120 
  13   2.0000      -0.522442       -14.2164 
  14   2.0000      -0.509873       -13.8744 
  15   2.0000      -0.475736       -12.9454 
  16   2.0000      -0.428997       -11.6736 
  17   2.0000      -0.425864       -11.5884 
  18   2.0000      -0.414183       -11.2705 
  19   2.0000      -0.383918       -10.4469 
  20   2.0000      -0.355679        -9.6785 
  21   2.0000      -0.338114        -9.2006 
  22   2.0000      -0.313465        -8.5298 
  23   1.9997      -0.250474        -6.8157 
  24   1.9950      -0.207402        -5.6437 
  25   0.0031      -0.009984        -0.2717 
  26   0.0013       0.003199         0.0870 
  27   0.0006       0.015811         0.4302 
  28   0.0002       0.035342         0.9617 
  29   0.0001       0.041261         1.1228 
  30   0.0000       0.068729         1.8702 
  31   0.0000       0.069482         1.8907 
  32   0.0000       0.104205         2.8356 
  33   0.0000       0.104620         2.8469 
  34   0.0000       0.113566         3.0903 
  35   0.0000       0.119430         3.2499 
  36   0.0000       0.141430         3.8485 
  37   0.0000       0.150912         4.1065 
  38   0.0000       0.156710         4.2643 
  39   0.0000       0.171291         4.6611 
  40   0.0000       0.172690         4.6991 
  41   0.0000       0.175939         4.7876 
  42   0.0000       0.176782         4.8105 
  43   0.0000       0.216064         5.8794 
  44   0.0000       0.217205         5.9104 
  45   0.0000       0.225436         6.1344 
  46   0.0000       0.227988         6.2039 
  47   0.0000       0.253068         6.8863 
  48   0.0000       0.267971         7.2919 
  49   0.0000       0.270200         7.3525 
  50   0.0000       0.273521         7.4429 
  51   0.0000       0.287728         7.8295 
  52   0.0000       0.289878         7.8880 
  53   0.0000       0.295329         8.0363 
  54   0.0000       0.302773         8.2389 
  55   0.0000       0.308958         8.4072 
  56   0.0000       0.313673         8.5355 
  57   0.0000       0.327343         8.9074 
  58   0.0000       0.335214         9.1216 
  59   0.0000       0.337692         9.1891 
  60   0.0000       0.351648         9.5688 
  61   0.0000       0.355968         9.6864 
  62   0.0000       0.359776         9.7900 
  63   0.0000       0.390999        10.6396 
  64   0.0000       0.399546        10.8722 
  65   0.0000       0.404461        11.0060 
  66   0.0000       0.428644        11.6640 
  67   0.0000       0.447125        12.1669 
  68   0.0000       0.453753        12.3472 
  69   0.0000       0.454103        12.3568 
  70   0.0000       0.490941        13.3592 
  71   0.0000       0.492967        13.4143 
  72   0.0000       0.498039        13.5523 
  73   0.0000       0.518902        14.1201 
  74   0.0000       0.536217        14.5912 
  75   0.0000       0.541737        14.7414 
  76   0.0000       0.552161        15.0251 
  77   0.0000       0.566751        15.4221 
  78   0.0000       0.572687        15.5836 
  79   0.0000       0.599983        16.3264 
  80   0.0000       0.601072        16.3560 
  81   0.0000       0.632088        17.2000 
  82   0.0000       0.633637        17.2421 
  83   0.0000       0.649236        17.6666 
  84   0.0000       0.664227        18.0745 
  85   0.0000       0.670405        18.2426 
  86   0.0000       0.679620        18.4934 
  87   0.0000       0.685638        18.6572 
  88   0.0000       0.699741        19.0409 
  89   0.0000       0.717211        19.5163 
  90   0.0000       0.722774        19.6677 
  91   0.0000       0.739261        20.1163 
  92   0.0000       0.745402        20.2834 
  93   0.0000       0.751356        20.4454 
  94   0.0000       0.769394        20.9363 
  95   0.0000       0.770670        20.9710 
  96   0.0000       0.772922        21.0323 
  97   0.0000       0.785250        21.3677 
  98   0.0000       0.787912        21.4402 
  99   0.0000       0.809784        22.0354 
 100   0.0000       0.823117        22.3981 
 101   0.0000       0.834081        22.6965 
 102   0.0000       0.852551        23.1991 
 103   0.0000       0.862211        23.4619 
 104   0.0000       0.868510        23.6334 
 105   0.0000       0.898062        24.4375 
 106   0.0000       0.899278        24.4706 
 107   0.0000       0.907965        24.7070 
 108   0.0000       0.908392        24.7186 
 109   0.0000       0.928010        25.2524 
 110   0.0000       0.939903        25.5761 
 111   0.0000       0.942395        25.6439 
 112   0.0000       0.950047        25.8521 
 113   0.0000       0.950387        25.8614 
 114   0.0000       0.995998        27.1025 
 115   0.0000       1.004168        27.3248 
 116   0.0000       1.008876        27.4529 
 117   0.0000       1.015158        27.6239 
 118   0.0000       1.021919        27.8078 
 119   0.0000       1.023907        27.8619 
 120   0.0000       1.026452        27.9312 
 121   0.0000       1.039751        28.2931 
 122   0.0000       1.046876        28.4869 
 123   0.0000       1.059632        28.8340 
 124   0.0000       1.080412        29.3995 
 125   0.0000       1.093202        29.7475 
 126   0.0000       1.127345        30.6766 
 127   0.0000       1.131513        30.7900 
 128   0.0000       1.141669        31.0664 
 129   0.0000       1.148723        31.2583 
 130   0.0000       1.156532        31.4708 
 131   0.0000       1.173266        31.9262 
 132   0.0000       1.197888        32.5962 
 133   0.0000       1.204840        32.7854 
 134   0.0000       1.218855        33.1667 
 135   0.0000       1.243064        33.8255 
 136   0.0000       1.251252        34.0483 
 137   0.0000       1.270921        34.5835 
 138   0.0000       1.296285        35.2737 
 139   0.0000       1.313407        35.7396 
 140   0.0000       1.358208        36.9587 
 141   0.0000       1.365089        37.1460 
 142   0.0000       1.381098        37.5816 
 143   0.0000       1.407488        38.2997 
 144   0.0000       1.429800        38.9068 
 145   0.0000       1.472906        40.0798 
 146   0.0000       1.494753        40.6743 
 147   0.0000       1.541287        41.9405 
 148   0.0000       1.544363        42.0243 
 149   0.0000       1.557526        42.3824 
 150   0.0000       1.574396        42.8415 
 151   0.0000       1.579150        42.9708 
 152   0.0000       1.600233        43.5446 
 153   0.0000       1.604545        43.6619 
 154   0.0000       1.615982        43.9731 
 155   0.0000       1.640364        44.6366 
 156   0.0000       1.667204        45.3669 
 157   0.0000       1.689518        45.9741 
 158   0.0000       1.714331        46.6493 
 159   0.0000       1.719908        46.8011 
 160   0.0000       1.757964        47.8366 
 161   0.0000       1.759932        47.8902 
 162   0.0000       1.767351        48.0921 
 163   0.0000       1.791166        48.7401 
 164   0.0000       1.797128        48.9023 
 165   0.0000       1.811979        49.3065 
 166   0.0000       1.818185        49.4753 
 167   0.0000       1.822140        49.5830 
 168   0.0000       1.829201        49.7751 
 169   0.0000       1.850593        50.3572 
 170   0.0000       1.865716        50.7687 
 171   0.0000       1.893888        51.5353 
 172   0.0000       1.931246        52.5519 
 173   0.0000       1.934329        52.6358 
 174   0.0000       1.941035        52.8182 
 175   0.0000       1.951381        53.0998 
 176   0.0000       1.966269        53.5049 
 177   0.0000       1.976546        53.7845 
 178   0.0000       1.983238        53.9666 
 179   0.0000       1.995591        54.3028 
 180   0.0000       2.004511        54.5455 
 181   0.0000       2.012587        54.7653 
 182   0.0000       2.021885        55.0183 
 183   0.0000       2.028687        55.2034 
 184   0.0000       2.053503        55.8786 
 185   0.0000       2.064298        56.1724 
 186   0.0000       2.064868        56.1879 
 187   0.0000       2.104810        57.2748 
 188   0.0000       2.117297        57.6146 
 189   0.0000       2.126037        57.8524 
 190   0.0000       2.142348        58.2963 
 191   0.0000       2.160451        58.7889 
 192   0.0000       2.167560        58.9823 
 193   0.0000       2.172703        59.1223 
 194   0.0000       2.210044        60.1384 
 195   0.0000       2.214745        60.2663 
 196   0.0000       2.228079        60.6291 
 197   0.0000       2.228257        60.6340 
 198   0.0000       2.251002        61.2529 
 199   0.0000       2.251541        61.2675 
 200   0.0000       2.254688        61.3532 
 201   0.0000       2.262946        61.5779 
 202   0.0000       2.277793        61.9819 
 203   0.0000       2.284496        62.1643 
 204   0.0000       2.303388        62.6784 
 205   0.0000       2.306534        62.7640 
 206   0.0000       2.306917        62.7744 
 207   0.0000       2.315034        62.9953 
 208   0.0000       2.351223        63.9800 
 209   0.0000       2.374481        64.6129 
 210   0.0000       2.380567        64.7785 
 211   0.0000       2.425859        66.0110 
 212   0.0000       2.431056        66.1524 
 213   0.0000       2.433773        66.2263 
 214   0.0000       2.445735        66.5518 
 215   0.0000       2.449143        66.6446 
 216   0.0000       2.454783        66.7980 
 217   0.0000       2.460869        66.9636 
 218   0.0000       2.468662        67.1757 
 219   0.0000       2.473784        67.3151 
 220   0.0000       2.494049        67.8665 
 221   0.0000       2.501236        68.0621 
 222   0.0000       2.521770        68.6209 
 223   0.0000       2.528018        68.7909 
 224   0.0000       2.562937        69.7411 
 225   0.0000       2.567410        69.8628 
 226   0.0000       2.569331        69.9151 
 227   0.0000       2.576891        70.1208 
 228   0.0000       2.599410        70.7335 
 229   0.0000       2.610210        71.0274 
 230   0.0000       2.625404        71.4409 
 231   0.0000       2.625790        71.4514 
 232   0.0000       2.632132        71.6240 
 233   0.0000       2.640416        71.8494 
 234   0.0000       2.652996        72.1917 
 235   0.0000       2.654008        72.2192 
 236   0.0000       2.660311        72.3907 
 237   0.0000       2.684661        73.0533 
 238   0.0000       2.687260        73.1241 
 239   0.0000       2.724893        74.1481 
 240   0.0000       2.730798        74.3088 
 241   0.0000       2.751336        74.8677 
 242   0.0000       2.758056        75.0505 
 243   0.0000       2.781097        75.6775 
 244   0.0000       2.794520        76.0428 
 245   0.0000       2.798180        76.1424 
 246   0.0000       2.812655        76.5362 
 247   0.0000       2.825969        76.8985 
 248   0.0000       2.830693        77.0271 
 249   0.0000       2.844375        77.3994 
 250   0.0000       2.848958        77.5241 
 251   0.0000       2.869552        78.0845 
 252   0.0000       2.910422        79.1966 
 253   0.0000       2.929721        79.7218 
 254   0.0000       2.952017        80.3285 
 255   0.0000       2.972606        80.8887 
 256   0.0000       2.991880        81.4132 
 257   0.0000       3.011513        81.9474 
 258   0.0000       3.018741        82.1441 
 259   0.0000       3.034462        82.5719 
 260   0.0000       3.042070        82.7789 
 261   0.0000       3.055331        83.1398 
 262   0.0000       3.106142        84.5224 
 263   0.0000       3.113100        84.7118 
 264   0.0000       3.133166        85.2578 
 265   0.0000       3.169880        86.2568 
 266   0.0000       3.175468        86.4089 
 267   0.0000       3.211484        87.3889 
 268   0.0000       3.226781        87.8052 
 269   0.0000       3.279077        89.2282 
 270   0.0000       3.287329        89.4528 
 271   0.0000       3.308362        90.0251 
 272   0.0000       3.331642        90.6586 
 273   0.0000       3.336401        90.7881 
 274   0.0000       3.372697        91.7757 
 275   0.0000       3.381962        92.0279 
 276   0.0000       3.401751        92.5663 
 277   0.0000       3.402265        92.5803 
 278   0.0000       3.438172        93.5574 
 279   0.0000       3.445326        93.7521 
 280   0.0000       3.450830        93.9019 
 281   0.0000       3.464051        94.2616 
 282   0.0000       3.474389        94.5429 
 283   0.0000       3.509472        95.4976 
 284   0.0000       3.518347        95.7391 
 285   0.0000       3.533611        96.1544 
 286   0.0000       3.569628        97.1345 
 287   0.0000       3.580314        97.4253 
 288   0.0000       3.602025        98.0161 
 289   0.0000       3.640705        99.0686 
 290   0.0000       3.672137        99.9239 
 291   0.0000       3.681871       100.1888 
 292   0.0000       3.686192       100.3064 
 293   0.0000       3.738572       101.7317 
 294   0.0000       3.740452       101.7829 
 295   0.0000       3.791715       103.1778 
 296   0.0000       3.834469       104.3412 
 297   0.0000       3.880495       105.5936 
 298   0.0000       3.889744       105.8453 
 299   0.0000       3.915297       106.5407 
 300   0.0000       3.952300       107.5475 
 301   0.0000       3.961284       107.7920 
 302   0.0000       4.060695       110.4971 
 303   0.0000       4.075336       110.8955 
 304   0.0000       4.079408       111.0063 
 305   0.0000       4.107928       111.7824 
 306   0.0000       4.133370       112.4747 
 307   0.0000       4.148863       112.8963 
 308   0.0000       4.154202       113.0416 
 309   0.0000       4.240073       115.3782 
 310   0.0000       4.256691       115.8305 
 311   0.0000       4.293929       116.8437 
 312   0.0000       4.358182       118.5922 
 313   0.0000       4.361145       118.6728 
 314   0.0000       4.459976       121.3621 
 315   0.0000       4.508832       122.6916 
 316   0.0000       4.537908       123.4828 
 317   0.0000       4.560565       124.0993 
 318   0.0000       4.603183       125.2590 
 319   0.0000       4.628280       125.9419 
 320   0.0000       4.701441       127.9327 
 321   0.0000       4.715579       128.3174 
 322   0.0000       4.754797       129.3846 
 323   0.0000       4.826702       131.3412 
 324   0.0000       4.842152       131.7617 
 325   0.0000       4.856322       132.1472 
 326   0.0000       4.915193       133.7492 
 327   0.0000       4.934514       134.2749 
 328   0.0000       4.947542       134.6295 
 329   0.0000       4.982175       135.5719 
 330   0.0000       5.036568       137.0520 
 331   0.0000       5.043830       137.2496 
 332   0.0000       5.068660       137.9253 
 333   0.0000       5.085036       138.3709 
 334   0.0000       5.096348       138.6787 
 335   0.0000       5.143158       139.9524 
 336   0.0000       5.165253       140.5537 
 337   0.0000       5.189935       141.2253 
 338   0.0000       5.193488       141.3220 
 339   0.0000       5.222759       142.1185 
 340   0.0000       5.230294       142.3235 
 341   0.0000       5.237028       142.5068 
 342   0.0000       5.293522       144.0440 
 343   0.0000       5.330958       145.0627 
 344   0.0000       5.346254       145.4790 
 345   0.0000       5.368585       146.0866 
 346   0.0000       5.382569       146.4671 
 347   0.0000       5.390084       146.6717 
 348   0.0000       5.400918       146.9664 
 349   0.0000       5.414579       147.3382 
 350   0.0000       5.442814       148.1065 
 351   0.0000       5.467216       148.7705 
 352   0.0000       5.502627       149.7341 
 353   0.0000       5.530572       150.4945 
 354   0.0000       5.538891       150.7209 
 355   0.0000       5.560447       151.3074 
 356   0.0000       5.614144       152.7686 
 357   0.0000       5.620017       152.9284 
 358   0.0000       5.620640       152.9454 
 359   0.0000       5.661780       154.0649 
 360   0.0000       5.688422       154.7898 
 361   0.0000       5.691811       154.8820 
 362   0.0000       5.703568       155.2020 
 363   0.0000       5.733843       156.0258 
 364   0.0000       5.753122       156.5504 
 365   0.0000       5.788345       157.5089 
 366   0.0000       5.817423       158.3001 
 367   0.0000       5.848182       159.1371 
 368   0.0000       5.872284       159.7930 
 369   0.0000       5.893247       160.3634 
 370   0.0000       5.898565       160.5081 
 371   0.0000       5.900186       160.5522 
 372   0.0000       5.911788       160.8679 
 373   0.0000       5.928044       161.3103 
 374   0.0000       5.936394       161.5375 
 375   0.0000       5.956861       162.0944 
 376   0.0000       5.958036       162.1264 
 377   0.0000       5.975333       162.5971 
 378   0.0000       6.000202       163.2738 
 379   0.0000       6.016546       163.7185 
 380   0.0000       6.025790       163.9701 
 381   0.0000       6.032733       164.1590 
 382   0.0000       6.054671       164.7560 
 383   0.0000       6.061030       164.9290 
 384   0.0000       6.091137       165.7483 
 385   0.0000       6.092414       165.7830 
 386   0.0000       6.095854       165.8766 
 387   0.0000       6.115022       166.3982 
 388   0.0000       6.118638       166.4966 
 389   0.0000       6.129508       166.7924 
 390   0.0000       6.153100       167.4344 
 391   0.0000       6.165242       167.7648 
 392   0.0000       6.176563       168.0728 
 393   0.0000       6.199583       168.6992 
 394   0.0000       6.226831       169.4407 
 395   0.0000       6.258518       170.3029 
 396   0.0000       6.263686       170.4436 
 397   0.0000       6.275165       170.7559 
 398   0.0000       6.278299       170.8412 
 399   0.0000       6.288039       171.1062 
 400   0.0000       6.289265       171.1396 
 401   0.0000       6.295468       171.3084 
 402   0.0000       6.305440       171.5797 
 403   0.0000       6.325966       172.1383 
 404   0.0000       6.350111       172.7953 
 405   0.0000       6.358362       173.0198 
 406   0.0000       6.371225       173.3698 
 407   0.0000       6.382886       173.6871 
 408   0.0000       6.415528       174.5754 
 409   0.0000       6.429551       174.9570 
 410   0.0000       6.455885       175.6736 
 411   0.0000       6.467068       175.9779 
 412   0.0000       6.478611       176.2920 
 413   0.0000       6.493232       176.6898 
 414   0.0000       6.553570       178.3317 
 415   0.0000       6.566210       178.6757 
 416   0.0000       6.579844       179.0466 
 417   0.0000       6.592388       179.3880 
 418   0.0000       6.608657       179.8307 
 419   0.0000       6.613559       179.9641 
 420   0.0000       6.621472       180.1794 
 421   0.0000       6.647278       180.8816 
 422   0.0000       6.648301       180.9095 
 423   0.0000       6.654920       181.0896 
 424   0.0000       6.658379       181.1837 
 425   0.0000       6.681699       181.8183 
 426   0.0000       6.721654       182.9055 
 427   0.0000       6.731229       183.1660 
 428   0.0000       6.732067       183.1889 
 429   0.0000       6.736144       183.2998 
 430   0.0000       6.741061       183.4336 
 431   0.0000       6.765306       184.0933 
 432   0.0000       6.809795       185.3039 
 433   0.0000       6.819854       185.5777 
 434   0.0000       6.847581       186.3321 
 435   0.0000       6.905266       187.9018 
 436   0.0000       6.925027       188.4396 
 437   0.0000       6.929099       188.5504 
 438   0.0000       6.933402       188.6675 
 439   0.0000       6.948145       189.0686 
 440   0.0000       6.988906       190.1778 
 441   0.0000       6.994333       190.3255 
 442   0.0000       7.038563       191.5290 
 443   0.0000       7.043452       191.6621 
 444   0.0000       7.063017       192.1945 
 445   0.0000       7.084415       192.7767 
 446   0.0000       7.102474       193.2681 
 447   0.0000       7.108542       193.4333 
 448   0.0000       7.153845       194.6660 
 449   0.0000       7.179634       195.3678 
 450   0.0000       7.180504       195.3914 
 451   0.0000       7.223457       196.5602 
 452   0.0000       7.227905       196.6813 
 453   0.0000       7.270328       197.8357 
 454   0.0000       7.330074       199.4614 
 455   0.0000       7.333836       199.5638 
 456   0.0000       7.352066       200.0599 
 457   0.0000       7.363664       200.3755 
 458   0.0000       7.401880       201.4154 
 459   0.0000       7.415618       201.7892 
 460   0.0000       7.420528       201.9228 
 461   0.0000       7.444827       202.5841 
 462   0.0000       7.447279       202.6508 
 463   0.0000       7.478794       203.5083 
 464   0.0000       7.484412       203.6612 
 465   0.0000       7.515384       204.5040 
 466   0.0000       7.515585       204.5095 
 467   0.0000       7.523098       204.7139 
 468   0.0000       7.554751       205.5752 
 469   0.0000       7.559253       205.6977 
 470   0.0000       7.572007       206.0448 
 471   0.0000       7.626805       207.5359 
 472   0.0000       7.643632       207.9938 
 473   0.0000       7.676899       208.8990 
 474   0.0000       7.679243       208.9628 
 475   0.0000       7.708500       209.7589 
 476   0.0000       7.721895       210.1234 
 477   0.0000       7.730856       210.3673 
 478   0.0000       7.800297       212.2569 
 479   0.0000       7.816986       212.7110 
 480   0.0000       7.830017       213.0656 
 481   0.0000       7.857855       213.8231 
 482   0.0000       7.864422       214.0018 
 483   0.0000       7.866825       214.0672 
 484   0.0000       7.883939       214.5329 
 485   0.0000       7.913536       215.3383 
 486   0.0000       7.955690       216.4853 
 487   0.0000       7.968836       216.8431 
 488   0.0000       7.992978       217.5000 
 489   0.0000       7.993440       217.5126 
 490   0.0000       8.044503       218.9021 
 491   0.0000       8.066589       219.5030 
 492   0.0000       8.082192       219.9276 
 493   0.0000       8.113324       220.7748 
 494   0.0000       8.124516       221.0793 
 495   0.0000       8.130479       221.2416 
 496   0.0000       8.153874       221.8782 
 497   0.0000       8.166695       222.2271 
 498   0.0000       8.175120       222.4563 
 499   0.0000       8.183591       222.6868 
 500   0.0000       8.196426       223.0361 
 501   0.0000       8.223739       223.7793 
 502   0.0000       8.223915       223.7841 
 503   0.0000       8.252845       224.5713 
 504   0.0000       8.254166       224.6073 
 505   0.0000       8.279951       225.3089 
 506   0.0000       8.280291       225.3182 
 507   0.0000       8.302040       225.9100 
 508   0.0000       8.311144       226.1577 
 509   0.0000       8.326415       226.5733 
 510   0.0000       8.329840       226.6665 
 511   0.0000       8.367047       227.6789 
 512   0.0000       8.384614       228.1569 
 513   0.0000       8.384954       228.1662 
 514   0.0000       8.397038       228.4950 
 515   0.0000       8.404140       228.6883 
 516   0.0000       8.417414       229.0495 
 517   0.0000       8.429187       229.3698 
 518   0.0000       8.435154       229.5322 
 519   0.0000       8.461713       230.2549 
 520   0.0000       8.491487       231.0651 
 521   0.0000       8.514343       231.6871 
 522   0.0000       8.527311       232.0399 
 523   0.0000       8.550595       232.6735 
 524   0.0000       8.566419       233.1041 
 525   0.0000       8.590375       233.7560 
 526   0.0000       8.623151       234.6479 
 527   0.0000       8.666925       235.8390 
 528   0.0000       8.669290       235.9034 
 529   0.0000       8.684160       236.3080 
 530   0.0000       8.743787       237.9305 
 531   0.0000       8.748728       238.0650 
 532   0.0000       8.753388       238.1918 
 533   0.0000       8.755212       238.2414 
 534   0.0000       8.780124       238.9193 
 535   0.0000       8.786588       239.0952 
 536   0.0000       8.872789       241.4409 
 537   0.0000       8.874857       241.4971 
 538   0.0000       8.906640       242.3620 
 539   0.0000       8.966908       244.0020 
 540   0.0000       8.998454       244.8604 
 541   0.0000       9.037007       245.9095 
 542   0.0000       9.054045       246.3731 
 543   0.0000       9.121864       248.2185 
 544   0.0000       9.235842       251.3200 
 545   0.0000       9.340922       254.1794 
 546   0.0000       9.370376       254.9809 
 547   0.0000       9.454022       257.2570 
 548   0.0000       9.468141       257.6412 
 549   0.0000       9.502119       258.5658 
 550   0.0000       9.537486       259.5282 
 551   0.0000       9.608291       261.4549 
 552   0.0000       9.629589       262.0344 
 553   0.0000       9.666594       263.0414 
 554   0.0000       9.670780       263.1553 
 555   0.0000       9.710459       264.2350 
 556   0.0000       9.739258       265.0187 
 557   0.0000       9.770507       265.8690 
 558   0.0000       9.775468       266.0040 
 559   0.0000       9.784484       266.2493 
 560   0.0000       9.823770       267.3184 
 561   0.0000       9.851988       268.0862 
 562   0.0000       9.883719       268.9497 
 563   0.0000       9.935304       270.3534 
 564   0.0000       9.960361       271.0352 
 565   0.0000      10.036516       273.1075 
 566   0.0000      10.064100       273.8581 
 567   0.0000      10.087621       274.4981 
 568   0.0000      10.168417       276.6967 
 569   0.0000      10.201106       277.5862 
 570   0.0000      10.271686       279.5068 
 571   0.0000      10.305191       280.4185 
 572   0.0000      10.306907       280.4652 
 573   0.0000      10.471542       284.9451 
 574   0.0000      10.480105       285.1782 
 575   0.0000      10.596768       288.3527 
 576   0.0000      10.712331       291.4974 
 577   0.0000      10.720665       291.7241 
 578   0.0000      10.737376       292.1789 
 579   0.0000      10.897922       296.5475 
 580   0.0000      11.305034       307.6256 
 581   0.0000      11.381555       309.7079 
 582   0.0000      11.456637       311.7510 
 583   0.0000      11.639035       316.7142 
 584   0.0000      11.663304       317.3746 
 585   0.0000      11.760995       320.0330 
 586   0.0000      11.915999       324.2508 
 587   0.0000      11.950681       325.1946 
 588   0.0000      12.097643       329.1936 
 589   0.0000      12.572939       342.1271 
 590   0.0000      12.688691       345.2768 
 591   0.0000      12.853279       349.7555 
 592   0.0000      13.124983       357.1489 
 593   0.0000      14.487585       394.2272 
 594   0.0000      15.041239       409.2929 
 595   0.0000      27.846965       757.7544 
 596   0.0000      28.378916       772.2296 
 597   0.0000      28.502212       775.5846 
 598   0.0000      28.834964       784.6393 
 599   0.0000      28.980423       788.5974 
 600   0.0000      29.292440       797.0878 
 601   0.0000      38.188912      1039.1731 
 602   0.0000     146.913797      3997.7277 
 603   0.0000     147.424026      4011.6117 
 604   0.0000     147.546289      4014.9386 
 605   0.0000     147.837082      4022.8515 
 606   0.0000     147.984225      4026.8555 
 607   0.0000     148.319913      4035.9900 
 608   0.0000     197.485122      5373.8434 

                    ********************************
                    * MULLIKEN POPULATION ANALYSIS *
                    ********************************

------------------------------------------
FOD BASED MULLIKEN REDUCED ORBITAL CHARGES
------------------------------------------
  0 C s       :     0.000008  s :     0.000008
      pz      :     0.000926  p :     0.000658
      px      :     0.000063
      py      :    -0.000331
      dz2     :    -0.000005  d :     0.000134
      dxz     :     0.000083
      dyz     :     0.000057
      dx2y2   :    -0.000006
      dxy     :     0.000006
      f0      :     0.000001  f :     0.000008
      f+1     :    -0.000000
      f-1     :     0.000000
      f+2     :     0.000007
      f-2     :     0.000002
      f+3     :    -0.000000
      f-3     :    -0.000001
      g0      :    -0.000000  g :     0.000001
      g+1     :     0.000000
      g-1     :     0.000000
      g+2     :     0.000000
      g-2     :     0.000000
      g+3     :     0.000000
      g-3     :     0.000000
      g+4     :     0.000000
      g-4     :     0.000000
  1 C s       :    -0.000176  s :    -0.000176
      pz      :     0.001390  p :     0.001382
      px      :    -0.000022
      py      :     0.000014
      dz2     :     0.000000  d :     0.000089
      dxz     :     0.000023
      dyz     :     0.000057
      dx2y2   :    -0.000004
      dxy     :     0.000013
      f0      :     0.000002  f :     0.000007
      f+1     :     0.000000
      f-1     :    -0.000000
      f+2     :     0.000005
      f-2     :     0.000000
      f+3     :     0.000000
      f-3     :     0.000000
      g0      :     0.000000  g :     0.000000
      g+1     :     0.000000
      g-1     :     0.000000
      g+2     :    -0.000000
      g-2     :     0.000000
      g+3     :     0.000000
      g-3     :     0.000000
      g+4     :     0.000000
      g-4     :     0.000000
  2 C s       :    -0.000038  s :    -0.000038
      pz      :     0.000942  p :     0.000898
      px      :    -0.000057
      py      :     0.000012
      dz2     :    -0.000000  d :     0.000127
      dxz     :     0.000024
      dyz     :     0.000100
      dx2y2   :     0.000002
      dxy     :     0.000002
      f0      :     0.000002  f :     0.000009
      f+1     :     0.000000
      f-1     :    -0.000000
      f+2     :     0.000004
      f-2     :     0.000003
      f+3     :    -0.000000
      f-3     :    -0.000000
      g0      :     0.000000  g :     0.000001
      g+1     :     0.000000
      g-1     :     0.000000
      g+2     :     0.000000
      g-2     :     0.000000
      g+3     :     0.000000
      g-3     :     0.000000
      g+4     :    -0.000000
      g-4     :    -0.000000
  3 C s       :    -0.000084  s :    -0.000084
      pz      :     0.001401  p :     0.001374
      px      :     0.000018
      py      :    -0.000045
      dz2     :     0.000000  d :     0.000090
      dxz     :     0.000083
      dyz     :     0.000006
      dx2y2   :     0.000003
      dxy     :    -0.000001
      f0      :     0.000001  f :     0.000006
      f+1     :    -0.000000
      f-1     :     0.000000
      f+2     :     0.000001
      f-2     :     0.000003
      f+3     :    -0.000000
      f-3     :     0.000000
      g0      :     0.000000  g :     0.000000
      g+1     :     0.000000
      g-1     :     0.000000
      g+2     :     0.000000
      g-2     :     0.000000
      g+3     :     0.000000
      g-3     :     0.000000
      g+4     :    -0.000000
      g-4     :    -0.000000
  4 C s       :    -0.000038  s :    -0.000038
      pz      :     0.000943  p :     0.000898
      px      :    -0.000045
      py      :    -0.000000
      dz2     :    -0.000000  d :     0.000127
      dxz     :     0.000035
      dyz     :     0.000089
      dx2y2   :    -0.000000
      dxy     :     0.000004
      f0      :     0.000002  f :     0.000009
      f+1     :    -0.000000
      f-1     :    -0.000000
      f+2     :     0.000006
      f-2     :     0.000001
      f+3     :    -0.000000
      f-3     :    -0.000000
      g0      :     0.000000  g :     0.000001
      g+1     :     0.000000
      g-1     :     0.000000
      g+2     :     0.000000
      g-2     :     0.000000
      g+3     :     0.000000
      g-3     :     0.000000
      g+4     :    -0.000000
      g-4     :    -0.000000
  5 C s       :    -0.000176  s :    -0.000176
      pz      :     0.001390  p :     0.001381
      px      :    -0.000037
      py      :     0.000029
      dz2     :     0.000000  d :     0.000089
      dxz     :     0.000017
      dyz     :     0.000062
      dx2y2   :    -0.000003
      dxy     :     0.000012
      f0      :     0.000002  f :     0.000007
      f+1     :     0.000000
      f-1     :    -0.000000
      f+2     :     0.000003
      f-2     :     0.000002
      f+3     :     0.000000
      f-3     :     0.000000
      g0      :     0.000000  g :     0.000000
      g+1     :     0.000000
      g-1     :     0.000000
      g+2     :    -0.000000
      g-2     :     0.000000
      g+3     :     0.000000
      g-3     :     0.000000
      g+4     :     0.000000
      g-4     :     0.000000
  6 H s       :     0.000203  s :     0.000203
      pz      :     0.000054  p :     0.000066
      px      :     0.000006
      py      :     0.000006
      dz2     :     0.000000  d :     0.000005
      dxz     :     0.000004
      dyz     :     0.000001
      dx2y2   :     0.000000
      dxy     :     0.000000
      f0      :     0.000000  f :     0.000000
      f+1     :     0.000000
      f-1     :     0.000000
      f+2     :     0.000000
      f-2     :     0.000000
      f+3     :     0.000000
      f-3     :     0.000000
  7 H s       :     0.000163  s :     0.000163
      pz      :     0.000043  p :     0.000048
      px      :     0.000004
      py      :     0.000001
      dz2     :     0.000000  d :     0.000004
      dxz     :     0.000004
      dyz     :     0.000001
      dx2y2   :     0.000000
      dxy     :     0.000000
      f0      :     0.000000  f :     0.000000
      f+1     :     0.000000
      f-1     :     0.000000
      f+2     :     0.000000
      f-2     :     0.000000
      f+3     :     0.000000
      f-3     :     0.000000
  8 H s       :     0.000127  s :     0.000127
      pz      :     0.000045  p :     0.000046
      px      :     0.000000
      py      :     0.000002
      dz2     :     0.000000  d :     0.000005
      dxz     :     0.000000
      dyz     :     0.000005
      dx2y2   :     0.000000
      dxy     :    -0.000000
      f0      :     0.000000  f :     0.000000
      f+1     :    -0.000000
      f-1     :     0.000000
      f+2     :     0.000000
      f-2     :     0.000000
      f+3     :    -0.000000
      f-3     :    -0.000000
  9 H s       :     0.000163  s :     0.000163
      pz      :     0.000043  p :     0.000048
      px      :     0.000003
      py      :     0.000001
      dz2     :     0.000000  d :     0.000004
      dxz     :     0.000003
      dyz     :     0.000001
      dx2y2   :     0.000000
      dxy     :     0.000000
      f0      :     0.000000  f :     0.000000
      f+1     :     0.000000
      f-1     :     0.000000
      f+2     :     0.000000
      f-2     :     0.000000
      f+3     :     0.000000
      f-3     :     0.000000
 10 H s       :     0.000202  s :     0.000202
      pz      :     0.000054  p :     0.000067
      px      :     0.000008
      py      :     0.000004
      dz2     :     0.000000  d :     0.000005
      dxz     :     0.000005
      dyz     :     0.000001
      dx2y2   :     0.000000
      dxy     :     0.000000
      f0      :     0.000000  f :     0.000000
      f+1     :     0.000000
      f-1     :     0.000000
      f+2     :     0.000000
      f-2     :     0.000000
      f+3     :     0.000000
      f-3     :     0.000000
 11 N s       :     0.000044  s :     0.000044
      pz      :     0.001347  p :     0.001275
      px      :    -0.000030
      py      :    -0.000042
      dz2     :     0.000003  d :     0.000027
      dxz     :    -0.000002
      dyz     :     0.000016
      dx2y2   :     0.000009
      dxy     :     0.000001
      f0      :    -0.000000  f :     0.000002
      f+1     :    -0.000000
      f-1     :     0.000000
      f+2     :     0.000001
      f-2     :     0.000000
      f+3     :     0.000000
      f-3     :     0.000001
      g0      :    -0.000000  g :     0.000000
      g+1     :    -0.000000
      g-1     :     0.000000
      g+2     :    -0.000000
      g-2     :     0.000000
      g+3     :     0.000000
      g-3     :     0.000000
      g+4     :    -0.000000
      g-4     :    -0.000000
 12 H s       :     0.000586  s :     0.000586
      pz      :     0.000051  p :     0.000098
      px      :     0.000032
      py      :     0.000016
      dz2     :     0.000001  d :     0.000007
      dxz     :     0.000004
      dyz     :     0.000001
      dx2y2   :     0.000000
      dxy     :     0.000000
      f0      :     0.000000  f :     0.000000
      f+1     :     0.000000
      f-1     :     0.000000
      f+2     :     0.000000
      f-2     :     0.000000
      f+3     :    -0.000000
      f-3     :     0.000000
 13 H s       :     0.000586  s :     0.000586
      pz      :     0.000051  p :     0.000098
      px      :     0.000038
      py      :     0.000009
      dz2     :     0.000001  d :     0.000007
      dxz     :     0.000005
      dyz     :     0.000000
      dx2y2   :     0.000001
      dxy     :     0.000000
      f0      :     0.000000  f :     0.000000
      f+1     :     0.000000
      f-1     :     0.000000
      f+2     :     0.000000
      f-2     :     0.000000
      f+3     :    -0.000000
      f-3     :     0.000000


                     *******************************
                     * LOEWDIN POPULATION ANALYSIS *
                     *******************************

----------------------
LOEWDIN ATOMIC CHARGES
----------------------
   0 C :   -0.246766
   1 C :    0.056676
   2 C :    0.048663
   3 C :    0.039472
   4 C :    0.048692
   5 C :    0.056665
   6 H :   -0.062483
   7 H :   -0.056708
   8 H :   -0.064094
   9 H :   -0.056702
  10 H :   -0.062512
  11 N :    0.643733
  12 H :   -0.172280
  13 H :   -0.172358

-------------------------------
LOEWDIN REDUCED ORBITAL CHARGES
-------------------------------
  0 C s       :     2.582073  s :     2.582073
      pz      :     0.764751  p :     2.675229
      px      :     1.027300
      py      :     0.883177
      dz2     :     0.054475  d :     0.774190
      dxz     :     0.098175
      dyz     :     0.169262
      dx2y2   :     0.237210
      dxy     :     0.215068
      f0      :     0.012868  f :     0.195515
      f+1     :     0.008602
      f-1     :     0.012000
      f+2     :     0.036367
      f-2     :     0.021367
      f+3     :     0.076573
      f-3     :     0.027739
      g0      :     0.000542  g :     0.019759
      g+1     :     0.001451
      g-1     :     0.003756
      g+2     :     0.001955
      g-2     :     0.001608
      g+3     :     0.000167
      g-3     :     0.001798
      g+4     :     0.004236
      g-4     :     0.004245
  1 C s       :     2.590608  s :     2.590608
      pz      :     0.819376  p :     2.745394
      px      :     0.944179
      py      :     0.981839
      dz2     :     0.039482  d :     0.485948
      dxz     :     0.041352
      dyz     :     0.069795
      dx2y2   :     0.142001
      dxy     :     0.193318
      f0      :     0.006497  f :     0.110194
      f+1     :     0.007214
      f-1     :     0.007548
      f+2     :     0.018295
      f-2     :     0.007800
      f+3     :     0.043846
      f-3     :     0.018995
      g0      :     0.000376  g :     0.011180
      g+1     :     0.000866
      g-1     :     0.001227
      g+2     :     0.001178
      g-2     :     0.001287
      g+3     :     0.000101
      g-3     :     0.000816
      g+4     :     0.002683
      g-4     :     0.002647
  2 C s       :     2.595296  s :     2.595296
      pz      :     0.766560  p :     2.716234
      px      :     0.957290
      py      :     0.992384
      dz2     :     0.037769  d :     0.516597
      dxz     :     0.035518
      dyz     :     0.099744
      dx2y2   :     0.168809
      dxy     :     0.174755
      f0      :     0.006119  f :     0.111831
      f+1     :     0.006833
      f-1     :     0.007328
      f+2     :     0.016093
      f-2     :     0.012289
      f+3     :     0.044414
      f-3     :     0.018755
      g0      :     0.000367  g :     0.011379
      g+1     :     0.000806
      g-1     :     0.001565
      g+2     :     0.001247
      g-2     :     0.001206
      g+3     :     0.000073
      g-3     :     0.000773
      g+4     :     0.001968
      g-4     :     0.003375
  3 C s       :     2.594377  s :     2.594377
      pz      :     0.805960  p :     2.748219
      px      :     0.995147
      py      :     0.947112
      dz2     :     0.037728  d :     0.496841
      dxz     :     0.091892
      dyz     :     0.022591
      dx2y2   :     0.201503
      dxy     :     0.143127
      f0      :     0.006360  f :     0.109925
      f+1     :     0.007490
      f-1     :     0.006766
      f+2     :     0.005236
      f-2     :     0.020150
      f+3     :     0.045456
      f-3     :     0.018467
      g0      :     0.000362  g :     0.011167
      g+1     :     0.001420
      g-1     :     0.000655
      g+2     :     0.001218
      g-2     :     0.001262
      g+3     :     0.000094
      g-3     :     0.000784
      g+4     :     0.003200
      g-4     :     0.002172
  4 C s       :     2.595295  s :     2.595295
      pz      :     0.766543  p :     2.716222
      px      :     0.965789
      py      :     0.983891
      dz2     :     0.037778  d :     0.516577
      dxz     :     0.048465
      dyz     :     0.086775
      dx2y2   :     0.149789
      dxy     :     0.193770
      f0      :     0.006119  f :     0.111833
      f+1     :     0.006962
      f-1     :     0.007200
      f+2     :     0.020893
      f-2     :     0.007491
      f+3     :     0.044570
      f-3     :     0.018598
      g0      :     0.000367  g :     0.011380
      g+1     :     0.000955
      g-1     :     0.001415
      g+2     :     0.001242
      g-2     :     0.001212
      g+3     :     0.000070
      g-3     :     0.000776
      g+4     :     0.002749
      g-4     :     0.002594
  5 C s       :     2.590584  s :     2.590584
      pz      :     0.819344  p :     2.745352
      px      :     0.939443
      py      :     0.986566
      dz2     :     0.039479  d :     0.486009
      dxz     :     0.031561
      dyz     :     0.079605
      dx2y2   :     0.154584
      dxy     :     0.180779
      f0      :     0.006498  f :     0.110208
      f+1     :     0.007023
      f-1     :     0.007739
      f+2     :     0.014399
      f-2     :     0.011699
      f+3     :     0.043404
      f-3     :     0.019446
      g0      :     0.000376  g :     0.011182
      g+1     :     0.000755
      g-1     :     0.001338
      g+2     :     0.001170
      g-2     :     0.001296
      g+3     :     0.000164
      g-3     :     0.000752
      g+4     :     0.002020
      g-4     :     0.003312
  6 H s       :     0.798914  s :     0.798914
      pz      :     0.058633  p :     0.190354
      px      :     0.074877
      py      :     0.056844
      dz2     :     0.004682  d :     0.063960
      dxz     :     0.014453
      dyz     :     0.007220
      dx2y2   :     0.022402
      dxy     :     0.015203
      f0      :     0.001076  f :     0.009255
      f+1     :     0.000726
      f-1     :     0.000451
      f+2     :     0.000269
      f-2     :     0.001589
      f+3     :     0.003190
      f-3     :     0.001955
  7 H s       :     0.799001  s :     0.799001
      pz      :     0.052509  p :     0.186133
      px      :     0.082745
      py      :     0.050879
      dz2     :     0.004688  d :     0.062478
      dxz     :     0.015953
      dyz     :     0.003766
      dx2y2   :     0.019861
      dxy     :     0.018210
      f0      :     0.000978  f :     0.009095
      f+1     :     0.000827
      f-1     :     0.000363
      f+2     :     0.000702
      f-2     :     0.000968
      f+3     :     0.003228
      f-3     :     0.002029
  8 H s       :     0.801567  s :     0.801567
      pz      :     0.058283  p :     0.190228
      px      :     0.042277
      py      :     0.089668
      dz2     :     0.004650  d :     0.063057
      dxz     :     0.000424
      dyz     :     0.020544
      dx2y2   :     0.014320
      dxy     :     0.023119
      f0      :     0.001051  f :     0.009242
      f+1     :     0.000238
      f-1     :     0.000960
      f+2     :     0.001706
      f-2     :     0.000082
      f+3     :     0.003203
      f-3     :     0.002002
  9 H s       :     0.798996  s :     0.798996
      pz      :     0.052503  p :     0.186132
      px      :     0.076176
      py      :     0.057453
      dz2     :     0.004687  d :     0.062479
      dxz     :     0.013358
      dyz     :     0.006362
      dx2y2   :     0.022532
      dxy     :     0.015540
      f0      :     0.000978  f :     0.009095
      f+1     :     0.000728
      f-1     :     0.000462
      f+2     :     0.000263
      f-2     :     0.001406
      f+3     :     0.003263
      f-3     :     0.001995
 10 H s       :     0.798923  s :     0.798923
      pz      :     0.058641  p :     0.190367
      px      :     0.081679
      py      :     0.050047
      dz2     :     0.004683  d :     0.063965
      dxz     :     0.017410
      dyz     :     0.004264
      dx2y2   :     0.019757
      dxy     :     0.017851
      f0      :     0.001076  f :     0.009257
      f+1     :     0.000824
      f-1     :     0.000353
      f+2     :     0.000760
      f-2     :     0.001098
      f+3     :     0.003156
      f-3     :     0.001989
 11 N s       :     2.710150  s :     2.710150
      pz      :     1.272805  p :     3.384201
      px      :     1.051192
      py      :     1.060205
      dz2     :     0.015739  d :     0.224873
      dxz     :     0.016917
      dyz     :     0.041938
      dx2y2   :     0.060489
      dxy     :     0.089791
      f0      :     0.003896  f :     0.035187
      f+1     :     0.000678
      f-1     :     0.002977
      f+2     :     0.006744
      f-2     :     0.003602
      f+3     :     0.010527
      f-3     :     0.006763
      g0      :     0.000217  g :     0.001855
      g+1     :     0.000159
      g-1     :     0.000292
      g+2     :     0.000206
      g-2     :     0.000096
      g+3     :     0.000037
      g-3     :     0.000263
      g+4     :     0.000131
      g-4     :     0.000455
 12 H s       :     0.723343  s :     0.723343
      pz      :     0.125576  p :     0.308646
      px      :     0.106273
      py      :     0.076797
      dz2     :     0.016625  d :     0.118885
      dxz     :     0.032277
      dyz     :     0.013387
      dx2y2   :     0.031395
      dxy     :     0.025200
      f0      :     0.001489  f :     0.021406
      f+1     :     0.004097
      f-1     :     0.001897
      f+2     :     0.001859
      f-2     :     0.003588
      f+3     :     0.005412
      f-3     :     0.003066
 13 H s       :     0.723359  s :     0.723359
      pz      :     0.125708  p :     0.308686
      px      :     0.114710
      py      :     0.068268
      dz2     :     0.016743  d :     0.118902
      dxz     :     0.037222
      dyz     :     0.008391
      dx2y2   :     0.027550
      dxy     :     0.028996
      f0      :     0.001474  f :     0.021411
      f+1     :     0.004900
      f-1     :     0.001128
      f+2     :     0.002717
      f-2     :     0.002730
      f+3     :     0.005053
      f-3     :     0.003409


                      *****************************
                      * MAYER POPULATION ANALYSIS *
                      *****************************

  NA   - Mulliken gross atomic population
  ZA   - Total nuclear charge
  QA   - Mulliken gross atomic charge
  VA   - Mayer's total valence
  BVA  - Mayer's bonded valence
  FA   - Mayer's free valence

  ATOM       NA         ZA         QA         VA         BVA        FA
  0 C      5.8051     6.0000     0.1949     3.6823     3.6807     0.0016
  1 C      6.0412     6.0000    -0.0412     3.6970     3.6944     0.0026
  2 C      6.0768     6.0000    -0.0768     3.8367     3.8347     0.0020
  3 C      6.0868     6.0000    -0.0868     3.7992     3.7964     0.0028
  4 C      6.0774     6.0000    -0.0774     3.8384     3.8364     0.0020
  5 C      6.0399     6.0000    -0.0399     3.6954     3.6928     0.0026
  6 H      0.9702     1.0000     0.0298     1.0097     1.0091     0.0005
  7 H      0.9467     1.0000     0.0533     1.0001     0.9996     0.0004
  8 H      0.9479     1.0000     0.0521     1.0035     1.0031     0.0004
  9 H      0.9460     1.0000     0.0540     0.9999     0.9995     0.0004
 10 H      0.9710     1.0000     0.0290     1.0099     1.0094     0.0005
 11 N      7.4133     7.0000    -0.4133     3.1329     3.1302     0.0027
 12 H      0.8389     1.0000     0.1611     1.0366     1.0352     0.0014
 13 H      0.8387     1.0000     0.1613     1.0365     1.0352     0.0014

  Mayer bond orders larger than 0.100000
B(  0-C ,  1-C ) :   1.2324 B(  0-C ,  5-C ) :   1.2316 B(  0-C , 11-N ) :   1.0828 
B(  1-C ,  2-C ) :   1.3552 B(  1-C ,  6-H ) :   0.9694 B(  2-C ,  3-C ) :   1.3293 
B(  2-C ,  7-H ) :   0.9681 B(  3-C ,  4-C ) :   1.3302 B(  3-C ,  8-H ) :   0.9693 
B(  4-C ,  5-C ) :   1.3552 B(  4-C ,  9-H ) :   0.9683 B(  5-C , 10-H ) :   0.9696 
B( 11-N , 12-H ) :   0.9927 B( 11-N , 13-H ) :   0.9925 

-------
TIMINGS
-------

Total SCF time: 0 days 0 hours 48 min 18 sec 

Total time                  ....    2898.849 sec
Sum of individual times     ....    2818.806 sec  ( 97.2%)

Fock matrix formation       ....    2774.150 sec  ( 95.7%)
  Split-RI-J                ....     212.011 sec  (  7.6% of F)
  Chain of spheres X        ....    2202.939 sec  ( 79.4% of F)
  XC integration            ....     273.084 sec  (  9.8% of F)
    Basis function eval.    ....      53.523 sec  ( 19.6% of XC)
    Density eval.           ....     100.749 sec  ( 36.9% of XC)
    XC-Functional eval.     ....       3.681 sec  (  1.3% of XC)
    XC-Potential eval.      ....     107.550 sec  ( 39.4% of XC)
Diagonalization             ....       6.685 sec  (  0.2%)
Density matrix formation    ....       5.825 sec  (  0.2%)
Population analysis         ....       0.533 sec  (  0.0%)
Initial guess               ....       7.501 sec  (  0.3%)
Orbital Transformation      ....       0.000 sec  (  0.0%)
Orbital Orthonormalization  ....       0.000 sec  (  0.0%)
DIIS solution               ....       3.403 sec  (  0.1%)
Grid generation             ....      20.709 sec  (  0.7%)

Maximum memory used throughout the entire SCF-calculation: 625.7 MB

-------------------------   --------------------
FINAL SINGLE POINT ENERGY      -287.556016451113
-------------------------   --------------------


                            ***************************************
                            *     ORCA property calculations      *
                            ***************************************

                                    ---------------------
                                    Active property flags
                                    ---------------------
   (+) Dipole Moment


------------------------------------------------------------------------------
                       ORCA ELECTRIC PROPERTIES CALCULATION
------------------------------------------------------------------------------

Dipole Moment Calculation                       ... on
Quadrupole Moment Calculation                   ... off
Polarizability Calculation                      ... off
GBWName                                         ... anilin_fod.gbw
Electron density                                ... anilin_fod.scfp
The origin for moment calculation is the CENTER OF MASS  = (-9.377165,  3.841028  0.042451)

-------------
DIPOLE MOMENT
-------------
                                X             Y             Z
Electronic contribution:     -0.01331      -0.16712      -0.17980
Nuclear contribution   :      0.05809       0.72683       0.52928
                        -----------------------------------------
Total Dipole Moment    :      0.04479       0.55970       0.34948
                        -----------------------------------------
Magnitude (a.u.)       :      0.66137
Magnitude (Debye)      :      1.68107



--------------------
Rotational spectrum 
--------------------
 
Rotational constants in cm-1:     0.186570     0.086136     0.059004 
Rotational constants in MHz :  5593.219850  2582.294403  1768.887501 

 Dipole components along the rotational axes: 
x,y,z [a.u.] :     0.568270     0.000132     0.338350 
x,y,z [Debye]:     1.444428     0.000336     0.860018 

 

Timings for individual modules:

Sum of individual times         ...     2911.949 sec (=  48.532 min)
GTO integral calculation        ...       12.554 sec (=   0.209 min)   0.4 %
SCF iterations                  ...     2899.395 sec (=  48.323 min)  99.6 %
                             ****ORCA TERMINATED NORMALLY****
TOTAL RUN TIME: 0 days 0 hours 48 minutes 36 seconds 682 msec
