
                                 *****************
                                 * O   R   C   A *
                                 *****************

                                            #,                                       
                                            ###                                      
                                            ####                                     
                                            #####                                    
                                            ######                                   
                                           ########,                                 
                                     ,,################,,,,,                         
                               ,,#################################,,                 
                          ,,##########################################,,             
                       ,#########################################, ''#####,          
                    ,#############################################,,   '####,        
                  ,##################################################,,,,####,       
                ,###########''''           ''''###############################       
              ,#####''   ,,,,##########,,,,          '''####'''          '####       
            ,##' ,,,,###########################,,,                        '##       
           ' ,,###''''                  '''############,,,                           
         ,,##''                                '''############,,,,        ,,,,,,###''
      ,#''                                            '''#######################'''  
     '                                                          ''''####''''         
             ,#######,   #######,   ,#######,      ##                                
            ,#'     '#,  ##    ##  ,#'     '#,    #''#        ######   ,####,        
            ##       ##  ##   ,#'  ##            #'  '#       #        #'  '#        
            ##       ##  #######   ##           ,######,      #####,   #    #        
            '#,     ,#'  ##    ##  '#,     ,#' ,#      #,         ##   #,  ,#        
             '#######'   ##     ##  '#######'  #'      '#     #####' # '####'        



                  #######################################################
                  #                        -***-                        #
                  #          Department of theory and spectroscopy      #
                  #    Directorship and core code : Frank Neese         #
                  #        Max Planck Institute fuer Kohlenforschung    #
                  #                Kaiser Wilhelm Platz 1               #
                  #                 D-45470 Muelheim/Ruhr               #
                  #                      Germany                        #
                  #                                                     #
                  #                  All rights reserved                #
                  #                        -***-                        #
                  #######################################################



                         Program Version 5.0.4 -  RELEASE  -

 With contributions from (in alphabetic order):
   Daniel Aravena         : Magnetic Suceptibility
   Michael Atanasov       : Ab Initio Ligand Field Theory (pilot matlab implementation)
   Alexander A. Auer      : GIAO ZORA, VPT2 properties, NMR spectrum
   Ute Becker             : Parallelization
   Giovanni Bistoni       : ED, misc. LED, open-shell LED, HFLD
   Martin Brehm           : Molecular dynamics
   Dmytro Bykov           : SCF Hessian
   Vijay G. Chilkuri      : MRCI spin determinant printing, contributions to CSF-ICE
   Dipayan Datta          : RHF DLPNO-CCSD density
   Achintya Kumar Dutta   : EOM-CC, STEOM-CC
   Dmitry Ganyushin       : Spin-Orbit,Spin-Spin,Magnetic field MRCI
   Miquel Garcia          : C-PCM and meta-GGA Hessian, CC/C-PCM, Gaussian charge scheme
   Yang Guo               : DLPNO-NEVPT2, F12-NEVPT2, CIM, IAO-localization
   Andreas Hansen         : Spin unrestricted coupled pair/coupled cluster methods
   Benjamin Helmich-Paris : MC-RPA, TRAH-SCF, COSX integrals
   Lee Huntington         : MR-EOM, pCC
   Robert Izsak           : Overlap fitted RIJCOSX, COSX-SCS-MP3, EOM
   Marcus Kettner         : VPT2
   Christian Kollmar      : KDIIS, OOCD, Brueckner-CCSD(T), CCSD density, CASPT2, CASPT2-K
   Simone Kossmann        : Meta GGA functionals, TD-DFT gradient, OOMP2, MP2 Hessian
   Martin Krupicka        : Initial AUTO-CI
   Lucas Lang             : DCDCAS
   Marvin Lechner         : AUTO-CI (C++ implementation), FIC-MRCC
   Dagmar Lenk            : GEPOL surface, SMD
   Dimitrios Liakos       : Extrapolation schemes; Compound Job, initial MDCI parallelization
   Dimitrios Manganas     : Further ROCIS development; embedding schemes
   Dimitrios Pantazis     : SARC Basis sets
   Anastasios Papadopoulos: AUTO-CI, single reference methods and gradients
   Taras Petrenko         : DFT Hessian,TD-DFT gradient, ASA, ECA, R-Raman, ABS, FL, XAS/XES, NRVS
   Peter Pinski           : DLPNO-MP2, DLPNO-MP2 Gradient
   Christoph Reimann      : Effective Core Potentials
   Marius Retegan         : Local ZFS, SOC
   Christoph Riplinger    : Optimizer, TS searches, QM/MM, DLPNO-CCSD(T), (RO)-DLPNO pert. Triples
   Tobias Risthaus        : Range-separated hybrids, TD-DFT gradient, RPA, STAB
   Michael Roemelt        : Original ROCIS implementation
   Masaaki Saitow         : Open-shell DLPNO-CCSD energy and density
   Barbara Sandhoefer     : DKH picture change effects
   Avijit Sen             : IP-ROCIS
   Kantharuban Sivalingam : CASSCF convergence, NEVPT2, FIC-MRCI
   Bernardo de Souza      : ESD, SOC TD-DFT
   Georgi Stoychev        : AutoAux, RI-MP2 NMR, DLPNO-MP2 response
   Willem Van den Heuvel  : Paramagnetic NMR
   Boris Wezisla          : Elementary symmetry handling
   Frank Wennmohs         : Technical directorship


 We gratefully acknowledge several colleagues who have allowed us to
 interface, adapt or use parts of their codes:
   Stefan Grimme, W. Hujo, H. Kruse, P. Pracht,  : VdW corrections, initial TS optimization,
                  C. Bannwarth, S. Ehlert          DFT functionals, gCP, sTDA/sTD-DF
   Ed Valeev, F. Pavosevic, A. Kumar             : LibInt (2-el integral package), F12 methods
   Garnet Chan, S. Sharma, J. Yang, R. Olivares  : DMRG
   Ulf Ekstrom                                   : XCFun DFT Library
   Mihaly Kallay                                 : mrcc  (arbitrary order and MRCC methods)
   Jiri Pittner, Ondrej Demel                    : Mk-CCSD
   Frank Weinhold                                : gennbo (NPA and NBO analysis)
   Christopher J. Cramer and Donald G. Truhlar   : smd solvation model
   Lars Goerigk                                  : TD-DFT with DH, B97 family of functionals
   V. Asgeirsson, H. Jonsson                     : NEB implementation
   FAccTs GmbH                                   : IRC, NEB, NEB-TS, DLPNO-Multilevel, CI-OPT
                                                   MM, QMMM, 2- and 3-layer-ONIOM, Crystal-QMMM,
                                                   LR-CPCM, SF, NACMEs, symmetry and pop. for TD-DFT,
                                                   nearIR, NL-DFT gradient (VV10), updates on ESD,
                                                   ML-optimized integration grids
   S Lehtola, MJT Oliveira, MAL Marques          : LibXC Library
   Liviu Ungur et al                             : ANISO software


 Your calculation uses the libint2 library for the computation of 2-el integrals
 For citations please refer to: http://libint.valeyev.net

 Your ORCA version has been built with support for libXC version: 5.1.0
 For citations please refer to: https://tddft.org/programs/libxc/

 This ORCA versions uses:
   CBLAS   interface :  Fast vector & matrix operations
   LAPACKE interface :  Fast linear algebra routines
   Shared memory     :  Shared parallel matrices


Your calculation utilizes the atom-pairwise dispersion correction
based on tight binding partial charges (D4)
Cite in your paper:
E.Caldeweyher, C.Bannwarth, S.Grimme, J.Chem.Phys., (2017), 147, 034112.
E.Caldeweyher, S.Ehlert, A.Hansen, H.Neugebauer, S.Grimme, J.Chem.Phys., (2018), in progress.
   

================================================================================

----- Orbital basis set information -----
Your calculation utilizes the basis: def2-QZVPP
   F. Weigend and R. Ahlrichs, Phys. Chem. Chem. Phys. 7, 3297 (2005).

----- AuxJ basis set information -----
Your calculation utilizes the auxiliary basis: def2/J
   F. Weigend, Phys. Chem. Chem. Phys. 8, 1057 (2006).

================================================================================
                                        WARNINGS
                       Please study these warnings very carefully!
================================================================================


WARNING: your system is open-shell and RHF/RKS was chosen
  ===> : WILL SWITCH to UHF/UKS


INFO   : the flag for use of the SHARK integral package has been found!

================================================================================
                                       INPUT FILE
================================================================================
NAME = kation.inp
|  1> !B3LYP DEF2-QZVPP D4 KEEPDENS SOSCF
|  2> 
|  3> %scf
|  4> convergence tight
|  5> end
|  6> 
|  7> * xyz 1 2
|  8>   C   -4.88569336155230      2.98207060676121      0.04333537261272
|  9>   C   -6.14959695789773      2.35864301241116      0.02758592588736
| 10>   C   -6.25559380286015      0.96845232728990     -0.00121869885868
| 11>   C   -5.11290643775582      0.16234415122468     -0.01440284580436
| 12>   C   -3.85586007858743      0.77497453451715      0.00208204091935
| 13>   C   -3.73800009771254      2.16417133781313      0.03090801634500
| 14>   H   -7.05256446988853      2.97652953111245      0.03476026878305
| 15>   H   -7.24815752893036      0.50936420781894     -0.01176333836965
| 16>   H   -5.20066374355790     -0.92621478272232     -0.03568755561573
| 17>   H   -2.94935247147236      0.16323446923219     -0.00589977089820
| 18>   H   -2.74782466200470      2.62955680400795      0.04054469739011
| 19>   N   -4.77400026474504      4.36582607320833      0.02173325533785
| 20>   H   -5.57985384924347      4.88619583261605      0.34871705822918
| 21>   H   -3.89604227379165      4.75045189470918      0.35073557404198
| 22> **                         ****END OF INPUT****
================================================================================

                       ****************************
                       * Single Point Calculation *
                       ****************************

---------------------------------
CARTESIAN COORDINATES (ANGSTROEM)
---------------------------------
  C     -4.885693    2.982071    0.043335
  C     -6.149597    2.358643    0.027586
  C     -6.255594    0.968452   -0.001219
  C     -5.112906    0.162344   -0.014403
  C     -3.855860    0.774975    0.002082
  C     -3.738000    2.164171    0.030908
  H     -7.052564    2.976530    0.034760
  H     -7.248158    0.509364   -0.011763
  H     -5.200664   -0.926215   -0.035688
  H     -2.949352    0.163234   -0.005900
  H     -2.747825    2.629557    0.040545
  N     -4.774000    4.365826    0.021733
  H     -5.579854    4.886196    0.348717
  H     -3.896042    4.750452    0.350736

----------------------------
CARTESIAN COORDINATES (A.U.)
----------------------------
  NO LB      ZA    FRAG     MASS         X           Y           Z
   0 C     6.0000    0    12.011   -9.232622    5.635297    0.081892
   1 C     6.0000    0    12.011  -11.621054    4.457189    0.052130
   2 C     6.0000    0    12.011  -11.821359    1.830110   -0.002303
   3 C     6.0000    0    12.011   -9.661993    0.306786   -0.027217
   4 C     6.0000    0    12.011   -7.286520    1.464490    0.003934
   5 C     6.0000    0    12.011   -7.063796    4.089691    0.058408
   6 H     1.0000    0     1.008  -13.327415    5.624826    0.065687
   7 H     1.0000    0     1.008  -13.697033    0.962559   -0.022229
   8 H     1.0000    0     1.008   -9.827830   -1.750292   -0.067440
   9 H     1.0000    0     1.008   -5.573468    0.308468   -0.011149
  10 H     1.0000    0     1.008   -5.192636    4.969142    0.076618
  11 N     7.0000    0    14.007   -9.021553    8.250216    0.041070
  12 H     1.0000    0     1.008  -10.544396    9.233572    0.658980
  13 H     1.0000    0     1.008   -7.362453    8.977053    0.662794

--------------------------------
INTERNAL COORDINATES (ANGSTROEM)
--------------------------------
 C      0   0   0     0.000000000000     0.00000000     0.00000000
 C      1   0   0     1.409383663636     0.00000000     0.00000000
 C      2   1   0     1.394523280030   120.62124987     0.00000000
 C      3   2   1     1.398470102512   120.84505814     0.03409859
 C      4   3   2     1.398482494392   118.80549324     0.00000000
 C      5   4   3     1.394485449992   120.83857368     0.00000000
 H      2   1   3     1.094159745604   119.35417300   180.20519390
 H      3   2   1     1.093643379339   119.18675301   179.92817755
 H      4   3   2     1.092298007079   120.59622984   179.92176950
 H      5   4   3     1.093638723963   119.99578905   179.88486531
 H      6   5   4     1.094131569440   120.02673924   180.18119945
 N      1   2   3     1.388423995135   120.85195132   177.58252821
 H     12   1   2     1.013460948191   116.27916399    22.84360398
 H     12   1   2     1.013405043483   116.28935887   159.57318851

---------------------------
INTERNAL COORDINATES (A.U.)
---------------------------
 C      0   0   0     0.000000000000     0.00000000     0.00000000
 C      1   0   0     2.663349141895     0.00000000     0.00000000
 C      2   1   0     2.635267086635   120.62124987     0.00000000
 C      3   2   1     2.642725500224   120.84505814     0.03409859
 C      4   3   2     2.642748917485   118.80549324     0.00000000
 C      5   4   3     2.635195598222   120.83857368     0.00000000
 H      2   1   3     2.067662265952   119.35417300   180.20519390
 H      3   2   1     2.066686475127   119.18675301   179.92817755
 H      4   3   2     2.064144090008   120.59622984   179.92176950
 H      5   4   3     2.066677677742   119.99578905   179.88486531
 H      6   5   4     2.067609020720   120.02673924   180.18119945
 N      1   2   3     2.623741108571   120.85195132   177.58252821
 H     12   1   2     1.915163639505   116.27916399    22.84360398
 H     12   1   2     1.915057994917   116.28935887   159.57318851

---------------------
BASIS SET INFORMATION
---------------------
There are 3 groups of distinct atoms

 Group   1 Type C   : 15s8p3d2f1g contracted to 7s4p3d2f1g pattern {8211111/5111/111/11/1}
 Group   2 Type H   : 7s3p2d1f contracted to 4s3p2d1f pattern {4111/111/11/1}
 Group   3 Type N   : 15s8p3d2f1g contracted to 7s4p3d2f1g pattern {8211111/5111/111/11/1}

Atom   0C    basis set group =>   1
Atom   1C    basis set group =>   1
Atom   2C    basis set group =>   1
Atom   3C    basis set group =>   1
Atom   4C    basis set group =>   1
Atom   5C    basis set group =>   1
Atom   6H    basis set group =>   2
Atom   7H    basis set group =>   2
Atom   8H    basis set group =>   2
Atom   9H    basis set group =>   2
Atom  10H    basis set group =>   2
Atom  11N    basis set group =>   3
Atom  12H    basis set group =>   2
Atom  13H    basis set group =>   2
---------------------------------
AUXILIARY/J BASIS SET INFORMATION
---------------------------------
There are 3 groups of distinct atoms

 Group   1 Type C   : 12s5p4d2f1g contracted to 6s4p3d1f1g pattern {711111/2111/211/2/1}
 Group   2 Type H   : 5s2p1d contracted to 3s1p1d pattern {311/2/1}
 Group   3 Type N   : 12s5p4d2f1g contracted to 6s4p3d1f1g pattern {711111/2111/211/2/1}

Atom   0C    basis set group =>   1
Atom   1C    basis set group =>   1
Atom   2C    basis set group =>   1
Atom   3C    basis set group =>   1
Atom   4C    basis set group =>   1
Atom   5C    basis set group =>   1
Atom   6H    basis set group =>   2
Atom   7H    basis set group =>   2
Atom   8H    basis set group =>   2
Atom   9H    basis set group =>   2
Atom  10H    basis set group =>   2
Atom  11N    basis set group =>   3
Atom  12H    basis set group =>   2
Atom  13H    basis set group =>   2
------------------------------------------------------------------------------
                           ORCA GTO INTEGRAL CALCULATION
                           -- RI-GTO INTEGRALS CHOSEN --
------------------------------------------------------------------------------
------------------------------------------------------------------------------
                   ___                                                        
                  /   \      - P O W E R E D   B Y -                         
                 /     \                                                     
                 |  |  |   _    _      __       _____    __    __             
                 |  |  |  | |  | |    /  \     |  _  \  |  |  /  |          
                  \  \/   | |  | |   /    \    | | | |  |  | /  /          
                 / \  \   | |__| |  /  /\  \   | |_| |  |  |/  /          
                |  |  |   |  __  | /  /__\  \  |    /   |      \           
                |  |  |   | |  | | |   __   |  |    \   |  |\   \          
                \     /   | |  | | |  |  |  |  | |\  \  |  | \   \       
                 \___/    |_|  |_| |__|  |__|  |_| \__\ |__|  \__/        
                                                                              
                      - O R C A' S   B I G   F R I E N D -                    
                                      &                                       
                       - I N T E G R A L  F E E D E R -                       
                                                                              
 v1 FN, 2020, v2 2021                                                         
------------------------------------------------------------------------------


Reading SHARK input file kation.SHARKINP.tmp ... ok
----------------------
SHARK INTEGRAL PACKAGE
----------------------

Number of atoms                             ...     14
Number of basis functions                   ...    609
Number of shells                            ...    189
Maximum angular momentum                    ...      4
Integral batch strategy                     ... SHARK/LIBINT Hybrid
RI-J (if used) integral strategy            ... SPLIT-RIJ (Revised 2003 algorithm where possible)
Printlevel                                  ...      1
Contraction scheme used                     ... SEGMENTED contraction
Coulomb Range Separation                    ... NOT USED
Exchange Range Separation                   ... NOT USED
Finite Nucleus Model                        ... NOT USED
Auxiliary Coulomb fitting basis             ... AVAILABLE
   # of basis functions in Aux-J            ...    420
   # of shells in Aux-J                     ...    140
   Maximum angular momentum in Aux-J        ...      4
Auxiliary J/K fitting basis                 ... NOT available
Auxiliary Correlation fitting basis         ... NOT available
Auxiliary 'external' fitting basis          ... NOT available
Integral threshold                          ...     2.500000e-11
Primitive cut-off                           ...     2.500000e-12
Primitive pair pre-selection threshold      ...     2.500000e-12

Calculating pre-screening integrals         ... done (  1.8 sec) Dimension = 189
Organizing shell pair data                  ... done (  1.6 sec)
Shell pair information
Total number of shell pairs                 ...     17955
Shell pairs after pre-screening             ...     15656
Total number of primitive shell pairs       ...     43680
Primitive shell pairs kept                  ...     29852
          la=0 lb=0:   2468 shell pairs
          la=1 lb=0:   3337 shell pairs
          la=1 lb=1:   1135 shell pairs
          la=2 lb=0:   2288 shell pairs
          la=2 lb=1:   1546 shell pairs
          la=2 lb=2:    542 shell pairs
          la=3 lb=0:   1374 shell pairs
          la=3 lb=1:    917 shell pairs
          la=3 lb=2:    638 shell pairs
          la=3 lb=3:    201 shell pairs
          la=4 lb=0:    498 shell pairs
          la=4 lb=1:    322 shell pairs
          la=4 lb=2:    224 shell pairs
          la=4 lb=3:    138 shell pairs
          la=4 lb=4:     28 shell pairs

Calculating one electron integrals          ... done (  0.5 sec)
Calculating RI/J V-Matrix + Cholesky decomp.... done (  0.0 sec)
Calculating Nuclear repulsion               ... done (  0.0 sec) ENN=    270.631545540734 Eh

SHARK setup successfully completed in   8.3 seconds

Maximum memory used throughout the entire GTOINT-calculation: 522.0 MB
-------------------------------------------------------------------------------
                                 ORCA SCF
-------------------------------------------------------------------------------

------------
SCF SETTINGS
------------
Hamiltonian:
 Density Functional     Method          .... DFT(GTOs)
 Exchange Functional    Exchange        .... B88
   X-Alpha parameter    XAlpha          ....  0.666667
   Becke's b parameter  XBeta           ....  0.004200
 Correlation Functional Correlation     .... LYP
 LDA part of GGA corr.  LDAOpt          .... VWN-5
 Gradients option       PostSCFGGA      .... off
 Hybrid DFT is turned on
   Fraction HF Exchange ScalHFX         ....  0.200000
   Scaling of DF-GGA-X  ScalDFX         ....  0.720000
   Scaling of DF-GGA-C  ScalDFC         ....  0.810000
   Scaling of DF-LDA-C  ScalLDAC        ....  1.000000
   Perturbative correction              ....  0.000000
   Density functional embedding theory  .... OFF
   NL short-range parameter             ....  4.800000
 RI-approximation to the Coulomb term is turned on
   Number of AuxJ basis functions       .... 420
   RIJ-COSX (HFX calculated with COS-X)).... on


General Settings:
 Integral files         IntName         .... kation
 Hartree-Fock type      HFTyp           .... UHF
 Total Charge           Charge          ....    1
 Multiplicity           Mult            ....    2
 Number of Electrons    NEL             ....   49
 Basis Dimension        Dim             ....  609
 Nuclear Repulsion      ENuc            ....    270.6315455407 Eh

Convergence Acceleration:
 DIIS                   CNVDIIS         .... on
   Start iteration      DIISMaxIt       ....    12
   Startup error        DIISStart       ....  0.200000
   # of expansion vecs  DIISMaxEq       ....     5
   Bias factor          DIISBfac        ....   1.050
   Max. coefficient     DIISMaxC        ....  10.000
 Trust-Rad. Augm. Hess. CNVTRAH         .... auto
   Auto Start mean grad. ratio tolernc. ....  1.125000
   Auto Start start iteration           ....    20
   Auto Start num. interpolation iter.  ....    10
   Max. Number of Micro iterations      ....    16
   Max. Number of Macro iterations      .... Maxiter - #DIIS iter
   Number of Davidson start vectors     ....     2
   Converg. threshold I  (grad. norm)   ....   1.000e-05
   Converg. threshold II (energy diff.) ....   1.000e-08
   Grad. Scal. Fac. for Micro threshold ....   0.100
   Minimum threshold for Micro iter.    ....   0.010
   NR start threshold (gradient norm)   ....   0.001
   Initial trust radius                 ....   0.400
   Minimum AH scaling param. (alpha)    ....   1.000
   Maximum AH scaling param. (alpha)    .... 1000.000
   Orbital update algorithm             .... Taylor
   White noise on init. David. guess    .... on
   Maximum white noise                  ....   0.010
   Quad. conv. algorithm                .... NR
 SOSCF                  CNVSOSCF        .... on
   Start iteration      SOSCFMaxIt      ....   150
   Startup grad/error   SOSCFStart      ....  0.003300
 Level Shifting         CNVShift        .... on
   Level shift para.    LevelShift      ....    0.2500
   Turn off err/grad.   ShiftErr        ....    0.0010
 Zerner damping         CNVZerner       .... off
 Static damping         CNVDamp         .... on
   Fraction old density DampFac         ....    0.7000
   Max. Damping (<1)    DampMax         ....    0.9800
   Min. Damping (>=0)   DampMin         ....    0.0000
   Turn off err/grad.   DampErr         ....    0.1000
 Fernandez-Rico         CNVRico         .... off

SCF Procedure:
 Maximum # iterations   MaxIter         ....   125
 SCF integral mode      SCFMode         .... Direct
   Integral package                     .... SHARK and LIBINT hybrid scheme
 Reset frequency        DirectResetFreq ....    20
 Integral Threshold     Thresh          ....  2.500e-11 Eh
 Primitive CutOff       TCut            ....  2.500e-12 Eh

Convergence Tolerance:
 Convergence Check Mode ConvCheckMode   .... Total+1el-Energy
 Convergence forced     ConvForced      .... 0
 Energy Change          TolE            ....  1.000e-08 Eh
 1-El. energy change                    ....  1.000e-05 Eh
 Orbital Gradient       TolG            ....  1.000e-05
 Orbital Rotation angle TolX            ....  1.000e-05
 DIIS Error             TolErr          ....  5.000e-07


Diagonalization of the overlap matrix:
Smallest eigenvalue                        ... 6.827e-06
Time for diagonalization                   ...    0.347 sec
Threshold for overlap eigenvalues          ... 1.000e-08
Number of eigenvalues below threshold      ... 0
Time for construction of square roots      ...    0.313 sec
Total time needed                          ...    0.662 sec

Time for model grid setup =    1.941 sec

------------------------------
INITIAL GUESS: MODEL POTENTIAL
------------------------------
Loading Hartree-Fock densities                     ... done
Calculating cut-offs                               ... done
Initializing the effective Hamiltonian             ... done
Setting up the integral package (SHARK)            ... done
Starting the Coulomb interaction                   ... done (   4.2 sec)
Reading the grid                                   ... done
Mapping shells                                     ... done
Starting the XC term evaluation                    ... done (   7.2 sec)
  promolecular density results
     # of electrons  =     49.994993537
     EX              =    -39.489892797
     EC              =     -1.657603529
     EX+EC           =    -41.147496326
Transforming the Hamiltonian                       ... done (   0.1 sec)
Diagonalizing the Hamiltonian                      ... done (   0.2 sec)
Back transforming the eigenvectors                 ... done (   0.0 sec)
Now organizing SCF variables                       ... done
                      ------------------
                      INITIAL GUESS DONE (  13.8 sec)
                      ------------------
-------------------
DFT GRID GENERATION
-------------------

General Integration Accuracy     IntAcc      ... 4.388
Radial Grid Type                 RadialGrid  ... OptM3 with GC (2021)
Angular Grid (max. ang.)         AngularGrid ... 4 (Lebedev-302)
Angular grid pruning method      GridPruning ... 4 (adaptive)
Weight generation scheme         WeightScheme... Becke
Basis function cutoff            BFCut       ... 1.0000e-11
Integration weight cutoff        WCut        ... 1.0000e-14
Angular grids for H and He will be reduced by one unit
Partially contracted basis set               ... off
Rotationally invariant grid construction     ... off

Total number of grid points                  ...    66555
Total number of batches                      ...     1047
Average number of points per batch           ...       63
Average number of grid points per atom       ...     4754
Time for grid setup =    5.331 sec

--------------------
COSX GRID GENERATION
--------------------

GRIDX 1
-------
General Integration Accuracy     IntAcc      ... 3.816
Radial Grid Type                 RadialGrid  ... OptM3 with GC (2021)
Angular Grid (max. ang.)         AngularGrid ... 1 (Lebedev-50)
Angular grid pruning method      GridPruning ... 4 (adaptive)
Weight generation scheme         WeightScheme... Becke
Basis function cutoff            BFCut       ... 1.0000e-11
Integration weight cutoff        WCut        ... 1.0000e-14
Angular grids for H and He will be reduced by one unit
Partially contracted basis set               ... on
Rotationally invariant grid construction     ... off

Total number of grid points                  ...     8537
Total number of batches                      ...      140
Average number of points per batch           ...       60
Average number of grid points per atom       ...      610
UseSFitting                                  ... on

GRIDX 2
-------
General Integration Accuracy     IntAcc      ... 4.020
Radial Grid Type                 RadialGrid  ... OptM3 with GC (2021)
Angular Grid (max. ang.)         AngularGrid ... 2 (Lebedev-110)
Angular grid pruning method      GridPruning ... 4 (adaptive)
Weight generation scheme         WeightScheme... Becke
Basis function cutoff            BFCut       ... 1.0000e-11
Integration weight cutoff        WCut        ... 1.0000e-14
Angular grids for H and He will be reduced by one unit
Partially contracted basis set               ... on
Rotationally invariant grid construction     ... off

Total number of grid points                  ...    20167
Total number of batches                      ...      321
Average number of points per batch           ...       62
Average number of grid points per atom       ...     1441
UseSFitting                                  ... on

GRIDX 3
-------
General Integration Accuracy     IntAcc      ... 4.338
Radial Grid Type                 RadialGrid  ... OptM3 with GC (2021)
Angular Grid (max. ang.)         AngularGrid ... 3 (Lebedev-194)
Angular grid pruning method      GridPruning ... 4 (adaptive)
Weight generation scheme         WeightScheme... Becke
Basis function cutoff            BFCut       ... 1.0000e-11
Integration weight cutoff        WCut        ... 1.0000e-14
Angular grids for H and He will be reduced by one unit
Partially contracted basis set               ... on
Rotationally invariant grid construction     ... off

Total number of grid points                  ...    43636
Total number of batches                      ...      688
Average number of points per batch           ...       63
Average number of grid points per atom       ...     3117
UseSFitting                                  ... on

Time for X-Grid setup             =   11.986 sec

--------------
SCF ITERATIONS
--------------
ITER       Energy         Delta-E        Max-DP      RMS-DP      [F,P]     Damp
               ***  Starting incremental Fock matrix formation  ***
  0   -287.1505944677   0.000000000000 0.01042960  0.00010920  0.0988698 0.7000
  1   -287.2047392162  -0.054144748542 0.00623197  0.00008200  0.0493548 0.7000
                               ***Turning on DIIS***
  2   -287.2285727397  -0.023833523503 0.01304771  0.00015304  0.0199237 0.0000
  3   -287.2645357798  -0.035963040073 0.00453257  0.00005671  0.0239941 0.0000
                      *** Initiating the SOSCF procedure ***
                           *** Shutting down DIIS ***
                      *** Re-Reading the Fockian *** 
                      *** Removing any level shift *** 
ITER      Energy       Delta-E        Grad      Rot      Max-DP    RMS-DP
  4   -287.27296770  -0.0084319250  0.003209  0.003209  0.001920  0.000020
               *** Restarting incremental Fock matrix formation ***
  5   -287.27334859  -0.0003808806  0.002914  0.011735  0.002118  0.000016
  6   -287.27335665  -0.0000080682  0.004010  0.008415  0.000826  0.000009
  7   -287.27349646  -0.0001398067  0.000461  0.002755  0.000434  0.000005
  8   -287.27350185  -0.0000053889  0.000829  0.003068  0.000288  0.000003
  9   -287.27350816  -0.0000063121  0.000359  0.000918  0.000163  0.000002
 10   -287.27350939  -0.0000012264  0.000160  0.000296  0.000078  0.000001
 11   -287.27350995  -0.0000005584  0.000054  0.000248  0.000047  0.000000
 12   -287.27351005  -0.0000001029  0.000015  0.000047  0.000012  0.000000
 13   -287.27351007  -0.0000000255  0.000007  0.000022  0.000012  0.000000
 14   -287.27351008  -0.0000000029  0.000004  0.000012  0.000015  0.000000
                  ***Gradient check signals convergence***
              ***Rediagonalizing the Fockian in SOSCF/NRSCF***

               *****************************************************
               *                     SUCCESS                       *
               *           SCF CONVERGED AFTER  15 CYCLES          *
               *****************************************************

Old exchange energy                            =     -7.978024133 Eh
New exchange energy                            =     -7.978026321 Eh
Exchange energy change after final integration =     -0.000002189 Eh
Total energy after final integration           =   -287.273512266 Eh
Final COS-X integration done in                =   318.415 sec

----------------
TOTAL SCF ENERGY
----------------

Total Energy       :         -287.27351227 Eh           -7817.10968 eV

Components:
Nuclear Repulsion  :          270.63154554 Eh            7364.25875 eV
Electronic Energy  :         -557.90505781 Eh          -15181.36843 eV
One Electron Energy:         -912.50581613 Eh          -24830.54562 eV
Two Electron Energy:          354.60075832 Eh            9649.17719 eV
Max COSX asymmetry :            0.00000019 Eh               0.00001 eV

Virial components:
Potential Energy   :         -573.09261238 Eh          -15594.64280 eV
Kinetic Energy     :          285.81910012 Eh            7777.53312 eV
Virial Ratio       :            2.00508858


DFT components:
N(Alpha)           :       25.000013504312 electrons
N(Beta)            :       24.000010678938 electrons
N(Total)           :       49.000024183250 electrons
E(X)               :      -31.710122799927 Eh       
E(C)               :       -1.928196735521 Eh       
E(XC)              :      -33.638319535448 Eh       
DFET-embed. en.    :        0.000000000000 Eh       

---------------
SCF CONVERGENCE
---------------

  Last Energy change         ...    2.2408e-10  Tolerance :   1.0000e-08
  Last MAX-Density change    ...    5.5511e-16  Tolerance :   1.0000e-07
  Last RMS-Density change    ...    2.8807e-18  Tolerance :   5.0000e-09
  Last Orbital Gradient      ...    7.8970e-07  Tolerance :   1.0000e-05
  Last Orbital Rotation      ...    4.7955e-06  Tolerance :   1.0000e-05

             **** THE GBW FILE WAS UPDATED (kation.gbw) ****
             **** DENSITY kation.scfp WAS UPDATED ****
             **** ENERGY FILE WAS UPDATED (kation.en.tmp) ****
----------------------
UHF SPIN CONTAMINATION
----------------------

Warning: in a DFT calculation there is little theoretical justification to 
         calculate <S**2> as in Hartree-Fock theory. We will do it anyways
         but you should keep in mind that the values have only limited relevance

Expectation value of <S**2>     :     0.768032
Ideal value S*(S+1) for S=0.5   :     0.750000
Deviation                       :     0.018032

             **** THE GBW FILE WAS UPDATED (kation.gbw) ****
             **** DENSITY kation.scfp WAS UPDATED ****
----------------
ORBITAL ENERGIES
----------------
                 SPIN UP ORBITALS
  NO   OCC          E(Eh)            E(eV) 
   0   1.0000     -14.580277      -396.7495 
   1   1.0000     -10.450026      -284.3597 
   2   1.0000     -10.391969      -282.7799 
   3   1.0000     -10.388471      -282.6847 
   4   1.0000     -10.388452      -282.6842 
   5   1.0000     -10.375969      -282.3445 
   6   1.0000     -10.375956      -282.3441 
   7   1.0000      -1.157632       -31.5008 
   8   1.0000      -1.051273       -28.6066 
   9   1.0000      -0.947930       -25.7945 
  10   1.0000      -0.945672       -25.7331 
  11   1.0000      -0.820388       -22.3239 
  12   1.0000      -0.810564       -22.0566 
  13   1.0000      -0.734044       -19.9744 
  14   1.0000      -0.730676       -19.8827 
  15   1.0000      -0.685418       -18.6512 
  16   1.0000      -0.642662       -17.4877 
  17   1.0000      -0.631268       -17.1777 
  18   1.0000      -0.615643       -16.7525 
  19   1.0000      -0.613981       -16.7073 
  20   1.0000      -0.560484       -15.2516 
  21   1.0000      -0.541712       -14.7407 
  22   1.0000      -0.540790       -14.7157 
  23   1.0000      -0.456605       -12.4248 
  24   1.0000      -0.443153       -12.0588 
  25   0.0000      -0.211555        -5.7567 
  26   0.0000      -0.211394        -5.7523 
  27   0.0000      -0.147908        -4.0248 
  28   0.0000      -0.115185        -3.1344 
  29   0.0000      -0.110754        -3.0138 
  30   0.0000      -0.078132        -2.1261 
  31   0.0000      -0.073608        -2.0030 
  32   0.0000      -0.067340        -1.8324 
  33   0.0000      -0.062067        -1.6889 
  34   0.0000      -0.048128        -1.3096 
  35   0.0000      -0.043128        -1.1736 
  36   0.0000      -0.033273        -0.9054 
  37   0.0000      -0.006261        -0.1704 
  38   0.0000       0.000028         0.0008 
  39   0.0000       0.004725         0.1286 
  40   0.0000       0.009475         0.2578 
  41   0.0000       0.016297         0.4435 
  42   0.0000       0.026302         0.7157 
  43   0.0000       0.048360         1.3159 
  44   0.0000       0.053865         1.4657 
  45   0.0000       0.058641         1.5957 
  46   0.0000       0.066595         1.8121 
  47   0.0000       0.083259         2.2656 
  48   0.0000       0.090475         2.4620 
  49   0.0000       0.095469         2.5978 
  50   0.0000       0.098785         2.6881 
  51   0.0000       0.113187         3.0800 
  52   0.0000       0.123625         3.3640 
  53   0.0000       0.137851         3.7511 
  54   0.0000       0.139752         3.8029 
  55   0.0000       0.149303         4.0627 
  56   0.0000       0.153464         4.1760 
  57   0.0000       0.157964         4.2984 
  58   0.0000       0.174952         4.7607 
  59   0.0000       0.176033         4.7901 
  60   0.0000       0.185669         5.0523 
  61   0.0000       0.190042         5.1713 
  62   0.0000       0.201144         5.4734 
  63   0.0000       0.208734         5.6800 
  64   0.0000       0.240467         6.5434 
  65   0.0000       0.252490         6.8706 
  66   0.0000       0.270408         7.3582 
  67   0.0000       0.276635         7.5276 
  68   0.0000       0.292075         7.9478 
  69   0.0000       0.292132         7.9493 
  70   0.0000       0.321887         8.7590 
  71   0.0000       0.331420         9.0184 
  72   0.0000       0.332755         9.0547 
  73   0.0000       0.350683         9.5426 
  74   0.0000       0.355787         9.6814 
  75   0.0000       0.361064         9.8250 
  76   0.0000       0.366161         9.9637 
  77   0.0000       0.393034        10.6950 
  78   0.0000       0.393985        10.7209 
  79   0.0000       0.406770        11.0688 
  80   0.0000       0.414893        11.2898 
  81   0.0000       0.449620        12.2348 
  82   0.0000       0.453394        12.3375 
  83   0.0000       0.468314        12.7435 
  84   0.0000       0.487621        13.2688 
  85   0.0000       0.491676        13.3792 
  86   0.0000       0.501593        13.6490 
  87   0.0000       0.509337        13.8598 
  88   0.0000       0.510344        13.8872 
  89   0.0000       0.533778        14.5249 
  90   0.0000       0.543955        14.8018 
  91   0.0000       0.553608        15.0645 
  92   0.0000       0.556404        15.1405 
  93   0.0000       0.571471        15.5505 
  94   0.0000       0.585211        15.9244 
  95   0.0000       0.590909        16.0795 
  96   0.0000       0.591090        16.0844 
  97   0.0000       0.609034        16.5727 
  98   0.0000       0.609333        16.5808 
  99   0.0000       0.625248        17.0139 
 100   0.0000       0.654175        17.8010 
 101   0.0000       0.655257        17.8304 
 102   0.0000       0.674596        18.3567 
 103   0.0000       0.681621        18.5478 
 104   0.0000       0.706438        19.2232 
 105   0.0000       0.719186        19.5700 
 106   0.0000       0.722207        19.6522 
 107   0.0000       0.727270        19.7900 
 108   0.0000       0.732326        19.9276 
 109   0.0000       0.745826        20.2950 
 110   0.0000       0.757863        20.6225 
 111   0.0000       0.760324        20.6895 
 112   0.0000       0.762992        20.7621 
 113   0.0000       0.770620        20.9696 
 114   0.0000       0.810545        22.0561 
 115   0.0000       0.824574        22.4378 
 116   0.0000       0.827215        22.5097 
 117   0.0000       0.832814        22.6620 
 118   0.0000       0.834747        22.7146 
 119   0.0000       0.845499        23.0072 
 120   0.0000       0.849357        23.1122 
 121   0.0000       0.850395        23.1404 
 122   0.0000       0.858451        23.3596 
 123   0.0000       0.884298        24.0630 
 124   0.0000       0.896776        24.4025 
 125   0.0000       0.910709        24.7816 
 126   0.0000       0.936718        25.4894 
 127   0.0000       0.938770        25.5452 
 128   0.0000       0.959538        26.1104 
 129   0.0000       0.970584        26.4109 
 130   0.0000       0.973629        26.4938 
 131   0.0000       0.989108        26.9150 
 132   0.0000       1.015733        27.6395 
 133   0.0000       1.020878        27.7795 
 134   0.0000       1.031014        28.0553 
 135   0.0000       1.061235        28.8777 
 136   0.0000       1.067630        29.0517 
 137   0.0000       1.093768        29.7629 
 138   0.0000       1.121172        30.5086 
 139   0.0000       1.121524        30.5182 
 140   0.0000       1.169740        31.8302 
 141   0.0000       1.179988        32.1091 
 142   0.0000       1.204513        32.7765 
 143   0.0000       1.214622        33.0515 
 144   0.0000       1.255615        34.1670 
 145   0.0000       1.273463        34.6527 
 146   0.0000       1.301056        35.4035 
 147   0.0000       1.346693        36.6454 
 148   0.0000       1.357417        36.9372 
 149   0.0000       1.363907        37.1138 
 150   0.0000       1.381905        37.6035 
 151   0.0000       1.392863        37.9017 
 152   0.0000       1.405053        38.2334 
 153   0.0000       1.412019        38.4230 
 154   0.0000       1.423352        38.7314 
 155   0.0000       1.448426        39.4137 
 156   0.0000       1.484754        40.4022 
 157   0.0000       1.495167        40.6856 
 158   0.0000       1.518427        41.3185 
 159   0.0000       1.521137        41.3922 
 160   0.0000       1.559031        42.4234 
 161   0.0000       1.559758        42.4432 
 162   0.0000       1.566811        42.6351 
 163   0.0000       1.584271        43.1102 
 164   0.0000       1.607061        43.7304 
 165   0.0000       1.618929        44.0533 
 166   0.0000       1.619185        44.0603 
 167   0.0000       1.619851        44.0784 
 168   0.0000       1.624264        44.1985 
 169   0.0000       1.657550        45.1042 
 170   0.0000       1.673480        45.5377 
 171   0.0000       1.688504        45.9465 
 172   0.0000       1.733489        47.1706 
 173   0.0000       1.737097        47.2688 
 174   0.0000       1.744576        47.4723 
 175   0.0000       1.753138        47.7053 
 176   0.0000       1.772686        48.2372 
 177   0.0000       1.779395        48.4198 
 178   0.0000       1.780890        48.4605 
 179   0.0000       1.803944        49.0878 
 180   0.0000       1.807962        49.1971 
 181   0.0000       1.815532        49.4031 
 182   0.0000       1.821519        49.5660 
 183   0.0000       1.835480        49.9460 
 184   0.0000       1.859777        50.6071 
 185   0.0000       1.861595        50.6566 
 186   0.0000       1.869101        50.8608 
 187   0.0000       1.903101        51.7860 
 188   0.0000       1.916215        52.1429 
 189   0.0000       1.929000        52.4908 
 190   0.0000       1.950365        53.0721 
 191   0.0000       1.962653        53.4065 
 192   0.0000       1.969549        53.5942 
 193   0.0000       1.975362        53.7523 
 194   0.0000       2.022253        55.0283 
 195   0.0000       2.023952        55.0745 
 196   0.0000       2.033023        55.3214 
 197   0.0000       2.034641        55.3654 
 198   0.0000       2.060517        56.0695 
 199   0.0000       2.060990        56.0824 
 200   0.0000       2.061633        56.0999 
 201   0.0000       2.069274        56.3078 
 202   0.0000       2.083080        56.6835 
 203   0.0000       2.085047        56.7370 
 204   0.0000       2.100830        57.1665 
 205   0.0000       2.110895        57.4404 
 206   0.0000       2.111522        57.4574 
 207   0.0000       2.119147        57.6649 
 208   0.0000       2.148082        58.4523 
 209   0.0000       2.180501        59.3345 
 210   0.0000       2.189061        59.5674 
 211   0.0000       2.227059        60.6014 
 212   0.0000       2.230793        60.7030 
 213   0.0000       2.238925        60.9243 
 214   0.0000       2.249218        61.2043 
 215   0.0000       2.251173        61.2575 
 216   0.0000       2.257367        61.4261 
 217   0.0000       2.260481        61.5108 
 218   0.0000       2.275055        61.9074 
 219   0.0000       2.276652        61.9508 
 220   0.0000       2.300155        62.5904 
 221   0.0000       2.309645        62.8486 
 222   0.0000       2.328483        63.3612 
 223   0.0000       2.337531        63.6075 
 224   0.0000       2.365649        64.3726 
 225   0.0000       2.374813        64.6219 
 226   0.0000       2.377859        64.7048 
 227   0.0000       2.386188        64.9315 
 228   0.0000       2.404784        65.4375 
 229   0.0000       2.417057        65.7715 
 230   0.0000       2.427365        66.0520 
 231   0.0000       2.432995        66.2052 
 232   0.0000       2.437431        66.3259 
 233   0.0000       2.445672        66.5501 
 234   0.0000       2.455345        66.8133 
 235   0.0000       2.465141        67.0799 
 236   0.0000       2.465809        67.0981 
 237   0.0000       2.484777        67.6142 
 238   0.0000       2.487095        67.6773 
 239   0.0000       2.534631        68.9708 
 240   0.0000       2.536023        69.0087 
 241   0.0000       2.559391        69.6446 
 242   0.0000       2.571348        69.9699 
 243   0.0000       2.591691        70.5235 
 244   0.0000       2.597953        70.6939 
 245   0.0000       2.602809        70.8260 
 246   0.0000       2.622948        71.3740 
 247   0.0000       2.627728        71.5041 
 248   0.0000       2.633940        71.6732 
 249   0.0000       2.651562        72.1527 
 250   0.0000       2.655402        72.2572 
 251   0.0000       2.676651        72.8354 
 252   0.0000       2.715447        73.8911 
 253   0.0000       2.731381        74.3246 
 254   0.0000       2.755165        74.9718 
 255   0.0000       2.774525        75.4987 
 256   0.0000       2.792947        75.9999 
 257   0.0000       2.805183        76.3329 
 258   0.0000       2.810552        76.4790 
 259   0.0000       2.834314        77.1256 
 260   0.0000       2.838133        77.2295 
 261   0.0000       2.856428        77.7274 
 262   0.0000       2.908610        79.1473 
 263   0.0000       2.911422        79.2238 
 264   0.0000       2.934662        79.8562 
 265   0.0000       2.963920        80.6524 
 266   0.0000       2.976401        80.9920 
 267   0.0000       3.007913        81.8495 
 268   0.0000       3.023648        82.2776 
 269   0.0000       3.079891        83.8081 
 270   0.0000       3.081675        83.8566 
 271   0.0000       3.107407        84.5569 
 272   0.0000       3.127971        85.1164 
 273   0.0000       3.135043        85.3089 
 274   0.0000       3.173863        86.3652 
 275   0.0000       3.176932        86.4487 
 276   0.0000       3.201085        87.1060 
 277   0.0000       3.201220        87.1096 
 278   0.0000       3.237025        88.0839 
 279   0.0000       3.248636        88.3999 
 280   0.0000       3.253027        88.5194 
 281   0.0000       3.276681        89.1630 
 282   0.0000       3.277225        89.1778 
 283   0.0000       3.300383        89.8080 
 284   0.0000       3.317197        90.2655 
 285   0.0000       3.331903        90.6657 
 286   0.0000       3.366423        91.6050 
 287   0.0000       3.372230        91.7630 
 288   0.0000       3.396453        92.4222 
 289   0.0000       3.432755        93.4100 
 290   0.0000       3.454264        93.9953 
 291   0.0000       3.470520        94.4376 
 292   0.0000       3.477949        94.6398 
 293   0.0000       3.526245        95.9540 
 294   0.0000       3.538319        96.2826 
 295   0.0000       3.586984        97.6068 
 296   0.0000       3.633107        98.8619 
 297   0.0000       3.673312        99.9559 
 298   0.0000       3.687180       100.3333 
 299   0.0000       3.702907       100.7612 
 300   0.0000       3.744496       101.8929 
 301   0.0000       3.754641       102.1690 
 302   0.0000       3.856487       104.9403 
 303   0.0000       3.871201       105.3407 
 304   0.0000       3.881783       105.6287 
 305   0.0000       3.899061       106.0989 
 306   0.0000       3.937104       107.1340 
 307   0.0000       3.942039       107.2683 
 308   0.0000       3.950093       107.4875 
 309   0.0000       4.030183       109.6669 
 310   0.0000       4.049853       110.2021 
 311   0.0000       4.081672       111.0680 
 312   0.0000       4.146334       112.8275 
 313   0.0000       4.151938       112.9800 
 314   0.0000       4.245535       115.5269 
 315   0.0000       4.291879       116.7880 
 316   0.0000       4.335173       117.9661 
 317   0.0000       4.347494       118.3013 
 318   0.0000       4.397690       119.6672 
 319   0.0000       4.420703       120.2934 
 320   0.0000       4.490609       122.1957 
 321   0.0000       4.506722       122.6341 
 322   0.0000       4.542757       123.6147 
 323   0.0000       4.609020       125.4178 
 324   0.0000       4.628777       125.9554 
 325   0.0000       4.647213       126.4571 
 326   0.0000       4.705645       128.0471 
 327   0.0000       4.719916       128.4355 
 328   0.0000       4.739755       128.9753 
 329   0.0000       4.765512       129.6762 
 330   0.0000       4.825005       131.2951 
 331   0.0000       4.835505       131.5808 
 332   0.0000       4.851610       132.0190 
 333   0.0000       4.870611       132.5361 
 334   0.0000       4.879983       132.7911 
 335   0.0000       4.928213       134.1035 
 336   0.0000       4.945393       134.5710 
 337   0.0000       4.979462       135.4981 
 338   0.0000       4.984008       135.6218 
 339   0.0000       5.010729       136.3489 
 340   0.0000       5.012161       136.3878 
 341   0.0000       5.023314       136.6913 
 342   0.0000       5.077223       138.1583 
 343   0.0000       5.119882       139.3191 
 344   0.0000       5.131955       139.6476 
 345   0.0000       5.158106       140.3592 
 346   0.0000       5.173728       140.7843 
 347   0.0000       5.177405       140.8843 
 348   0.0000       5.191474       141.2672 
 349   0.0000       5.202947       141.5794 
 350   0.0000       5.228599       142.2774 
 351   0.0000       5.260403       143.1428 
 352   0.0000       5.297824       144.1611 
 353   0.0000       5.328387       144.9928 
 354   0.0000       5.334496       145.1590 
 355   0.0000       5.355860       145.7404 
 356   0.0000       5.398091       146.8895 
 357   0.0000       5.403138       147.0269 
 358   0.0000       5.417286       147.4119 
 359   0.0000       5.452110       148.3595 
 360   0.0000       5.479864       149.1147 
 361   0.0000       5.482064       149.1745 
 362   0.0000       5.488462       149.3486 
 363   0.0000       5.525783       150.3642 
 364   0.0000       5.545689       150.9059 
 365   0.0000       5.578775       151.8062 
 366   0.0000       5.612360       152.7201 
 367   0.0000       5.642102       153.5294 
 368   0.0000       5.663845       154.1211 
 369   0.0000       5.683401       154.6532 
 370   0.0000       5.688016       154.7788 
 371   0.0000       5.691956       154.8860 
 372   0.0000       5.697930       155.0486 
 373   0.0000       5.721747       155.6967 
 374   0.0000       5.728387       155.8773 
 375   0.0000       5.747567       156.3992 
 376   0.0000       5.748122       156.4143 
 377   0.0000       5.764929       156.8717 
 378   0.0000       5.795716       157.7095 
 379   0.0000       5.810887       158.1223 
 380   0.0000       5.822523       158.4389 
 381   0.0000       5.830819       158.6647 
 382   0.0000       5.846138       159.0815 
 383   0.0000       5.862527       159.5275 
 384   0.0000       5.886675       160.1846 
 385   0.0000       5.890456       160.2875 
 386   0.0000       5.893337       160.3659 
 387   0.0000       5.914471       160.9409 
 388   0.0000       5.917258       161.0168 
 389   0.0000       5.922218       161.1518 
 390   0.0000       5.954159       162.0209 
 391   0.0000       5.955344       162.0532 
 392   0.0000       5.974600       162.5771 
 393   0.0000       5.995786       163.1536 
 394   0.0000       6.017854       163.7541 
 395   0.0000       6.051411       164.6673 
 396   0.0000       6.057560       164.8346 
 397   0.0000       6.068753       165.1392 
 398   0.0000       6.069894       165.1702 
 399   0.0000       6.078026       165.3915 
 400   0.0000       6.079478       165.4310 
 401   0.0000       6.082068       165.5015 
 402   0.0000       6.102111       166.0469 
 403   0.0000       6.117730       166.4719 
 404   0.0000       6.135285       166.9496 
 405   0.0000       6.148491       167.3090 
 406   0.0000       6.158979       167.5943 
 407   0.0000       6.169315       167.8756 
 408   0.0000       6.209991       168.9824 
 409   0.0000       6.226933       169.4435 
 410   0.0000       6.245131       169.9386 
 411   0.0000       6.259576       170.3317 
 412   0.0000       6.269543       170.6029 
 413   0.0000       6.278251       170.8399 
 414   0.0000       6.348929       172.7632 
 415   0.0000       6.361041       173.0927 
 416   0.0000       6.374091       173.4478 
 417   0.0000       6.386523       173.7861 
 418   0.0000       6.400059       174.1545 
 419   0.0000       6.405432       174.3007 
 420   0.0000       6.411556       174.4673 
 421   0.0000       6.435208       175.1109 
 422   0.0000       6.435651       175.1230 
 423   0.0000       6.443703       175.3421 
 424   0.0000       6.460379       175.7958 
 425   0.0000       6.468764       176.0240 
 426   0.0000       6.512504       177.2142 
 427   0.0000       6.514929       177.2802 
 428   0.0000       6.520144       177.4221 
 429   0.0000       6.528351       177.6455 
 430   0.0000       6.529407       177.6742 
 431   0.0000       6.552242       178.2956 
 432   0.0000       6.598189       179.5458 
 433   0.0000       6.612564       179.9370 
 434   0.0000       6.638028       180.6299 
 435   0.0000       6.690639       182.0615 
 436   0.0000       6.716425       182.7632 
 437   0.0000       6.718488       182.8194 
 438   0.0000       6.726953       183.0497 
 439   0.0000       6.730830       183.1552 
 440   0.0000       6.775721       184.3767 
 441   0.0000       6.780767       184.5141 
 442   0.0000       6.826729       185.7647 
 443   0.0000       6.831942       185.9066 
 444   0.0000       6.854729       186.5266 
 445   0.0000       6.874913       187.0759 
 446   0.0000       6.886212       187.3834 
 447   0.0000       6.903869       187.8638 
 448   0.0000       6.941410       188.8854 
 449   0.0000       6.965692       189.5461 
 450   0.0000       6.968703       189.6281 
 451   0.0000       7.009785       190.7459 
 452   0.0000       7.018278       190.9770 
 453   0.0000       7.062032       192.1676 
 454   0.0000       7.128448       193.9749 
 455   0.0000       7.130594       194.0333 
 456   0.0000       7.152645       194.6334 
 457   0.0000       7.159047       194.8076 
 458   0.0000       7.190415       195.6612 
 459   0.0000       7.212609       196.2651 
 460   0.0000       7.216112       196.3604 
 461   0.0000       7.241151       197.0417 
 462   0.0000       7.260822       197.5770 
 463   0.0000       7.272377       197.8914 
 464   0.0000       7.281162       198.1305 
 465   0.0000       7.309807       198.9100 
 466   0.0000       7.312680       198.9881 
 467   0.0000       7.328412       199.4162 
 468   0.0000       7.344874       199.8642 
 469   0.0000       7.349298       199.9846 
 470   0.0000       7.372025       200.6030 
 471   0.0000       7.421452       201.9480 
 472   0.0000       7.437922       202.3962 
 473   0.0000       7.470340       203.2783 
 474   0.0000       7.476066       203.4341 
 475   0.0000       7.514110       204.4693 
 476   0.0000       7.521553       204.6719 
 477   0.0000       7.534986       205.0374 
 478   0.0000       7.592103       206.5916 
 479   0.0000       7.618979       207.3229 
 480   0.0000       7.629299       207.6038 
 481   0.0000       7.651304       208.2026 
 482   0.0000       7.658212       208.3905 
 483   0.0000       7.663607       208.5373 
 484   0.0000       7.688768       209.2220 
 485   0.0000       7.717090       209.9927 
 486   0.0000       7.761793       211.2091 
 487   0.0000       7.764394       211.2799 
 488   0.0000       7.788268       211.9295 
 489   0.0000       7.793089       212.0607 
 490   0.0000       7.834950       213.1998 
 491   0.0000       7.866878       214.0686 
 492   0.0000       7.878307       214.3796 
 493   0.0000       7.910699       215.2611 
 494   0.0000       7.933940       215.8935 
 495   0.0000       7.942707       216.1320 
 496   0.0000       7.963174       216.6890 
 497   0.0000       7.967016       216.7935 
 498   0.0000       7.978974       217.1189 
 499   0.0000       7.983998       217.2556 
 500   0.0000       7.994541       217.5425 
 501   0.0000       8.021308       218.2709 
 502   0.0000       8.022624       218.3067 
 503   0.0000       8.049045       219.0257 
 504   0.0000       8.051349       219.0883 
 505   0.0000       8.062127       219.3816 
 506   0.0000       8.068575       219.5571 
 507   0.0000       8.101800       220.4612 
 508   0.0000       8.104664       220.5391 
 509   0.0000       8.126174       221.1244 
 510   0.0000       8.126723       221.1394 
 511   0.0000       8.165845       222.2040 
 512   0.0000       8.176282       222.4879 
 513   0.0000       8.187232       222.7859 
 514   0.0000       8.190252       222.8681 
 515   0.0000       8.204033       223.2431 
 516   0.0000       8.209700       223.3973 
 517   0.0000       8.227781       223.8893 
 518   0.0000       8.238925       224.1926 
 519   0.0000       8.252338       224.5575 
 520   0.0000       8.280922       225.3353 
 521   0.0000       8.322952       226.4791 
 522   0.0000       8.329878       226.6675 
 523   0.0000       8.339294       226.9237 
 524   0.0000       8.366843       227.6734 
 525   0.0000       8.378800       227.9987 
 526   0.0000       8.420565       229.1352 
 527   0.0000       8.455522       230.0864 
 528   0.0000       8.455729       230.0921 
 529   0.0000       8.483722       230.8538 
 530   0.0000       8.532815       232.1897 
 531   0.0000       8.533032       232.1956 
 532   0.0000       8.542488       232.4529 
 533   0.0000       8.557886       232.8719 
 534   0.0000       8.559499       232.9158 
 535   0.0000       8.582476       233.5410 
 536   0.0000       8.656284       235.5495 
 537   0.0000       8.665897       235.8110 
 538   0.0000       8.715654       237.1650 
 539   0.0000       8.775677       238.7983 
 540   0.0000       8.777262       238.8414 
 541   0.0000       8.831240       240.3102 
 542   0.0000       8.852575       240.8908 
 543   0.0000       8.879849       241.6330 
 544   0.0000       9.031609       245.7626 
 545   0.0000       9.131441       248.4791 
 546   0.0000       9.139885       248.7089 
 547   0.0000       9.221510       250.9301 
 548   0.0000       9.264872       252.1100 
 549   0.0000       9.296556       252.9722 
 550   0.0000       9.317946       253.5542 
 551   0.0000       9.400609       255.8036 
 552   0.0000       9.428446       256.5611 
 553   0.0000       9.444056       256.9858 
 554   0.0000       9.475159       257.8322 
 555   0.0000       9.516925       258.9687 
 556   0.0000       9.529853       259.3205 
 557   0.0000       9.550202       259.8742 
 558   0.0000       9.576921       260.6013 
 559   0.0000       9.585362       260.8310 
 560   0.0000       9.622852       261.8511 
 561   0.0000       9.644687       262.4453 
 562   0.0000       9.666526       263.0396 
 563   0.0000       9.724012       264.6038 
 564   0.0000       9.766268       265.7537 
 565   0.0000       9.827696       267.4252 
 566   0.0000       9.855117       268.1714 
 567   0.0000       9.870832       268.5990 
 568   0.0000       9.953895       270.8593 
 569   0.0000       9.987306       271.7684 
 570   0.0000      10.053831       273.5787 
 571   0.0000      10.085054       274.4283 
 572   0.0000      10.097093       274.7559 
 573   0.0000      10.252169       278.9757 
 574   0.0000      10.266429       279.3637 
 575   0.0000      10.383125       282.5392 
 576   0.0000      10.492214       285.5076 
 577   0.0000      10.513458       286.0857 
 578   0.0000      10.534834       286.6674 
 579   0.0000      10.698060       291.1090 
 580   0.0000      11.061749       301.0055 
 581   0.0000      11.153580       303.5043 
 582   0.0000      11.220391       305.3224 
 583   0.0000      11.399002       310.1826 
 584   0.0000      11.438346       311.2532 
 585   0.0000      11.539862       314.0156 
 586   0.0000      11.686155       317.9965 
 587   0.0000      11.725664       319.0716 
 588   0.0000      11.894712       323.6716 
 589   0.0000      12.376945       336.7938 
 590   0.0000      12.485063       339.7358 
 591   0.0000      12.658997       344.4688 
 592   0.0000      12.931367       351.8804 
 593   0.0000      14.261881       388.0855 
 594   0.0000      14.810511       403.0145 
 595   0.0000      27.627521       751.7831 
 596   0.0000      28.154985       766.1361 
 597   0.0000      28.291116       769.8404 
 598   0.0000      28.609945       778.5162 
 599   0.0000      28.770170       782.8761 
 600   0.0000      29.077477       791.2384 
 601   0.0000      37.934248      1032.2434 
 602   0.0000     146.695304      3991.7822 
 603   0.0000     147.201416      4005.5542 
 604   0.0000     147.335847      4009.2122 
 605   0.0000     147.613895      4016.7783 
 606   0.0000     147.774419      4021.1464 
 607   0.0000     148.105747      4030.1623 
 608   0.0000     197.233084      5366.9851 

                 SPIN DOWN ORBITALS
  NO   OCC          E(Eh)            E(eV) 
   0   1.0000     -14.572101      -396.5270 
   1   1.0000     -10.448169      -284.3091 
   2   1.0000     -10.386843      -282.6404 
   3   1.0000     -10.385938      -282.6157 
   4   1.0000     -10.385919      -282.6152 
   5   1.0000     -10.377035      -282.3735 
   6   1.0000     -10.377015      -282.3729 
   7   1.0000      -1.143691       -31.1214 
   8   1.0000      -1.042905       -28.3789 
   9   1.0000      -0.944670       -25.7058 
  10   1.0000      -0.932099       -25.3637 
  11   1.0000      -0.816740       -22.2246 
  12   1.0000      -0.804592       -21.8941 
  13   1.0000      -0.731104       -19.8943 
  14   1.0000      -0.725437       -19.7401 
  15   1.0000      -0.680996       -18.5308 
  16   1.0000      -0.638985       -17.3877 
  17   1.0000      -0.628280       -17.0964 
  18   1.0000      -0.613293       -16.6885 
  19   1.0000      -0.586224       -15.9520 
  20   1.0000      -0.557985       -15.1835 
  21   1.0000      -0.538825       -14.6622 
  22   1.0000      -0.506548       -13.7839 
  23   1.0000      -0.448722       -12.2103 
  24   0.0000      -0.357936        -9.7399 
  25   0.0000      -0.200301        -5.4505 
  26   0.0000      -0.185903        -5.0587 
  27   0.0000      -0.145284        -3.9534 
  28   0.0000      -0.114221        -3.1081 
  29   0.0000      -0.109652        -2.9838 
  30   0.0000      -0.076601        -2.0844 
  31   0.0000      -0.073221        -1.9924 
  32   0.0000      -0.062629        -1.7042 
  33   0.0000      -0.055269        -1.5039 
  34   0.0000      -0.046990        -1.2787 
  35   0.0000      -0.041826        -1.1381 
  36   0.0000      -0.025148        -0.6843 
  37   0.0000      -0.005126        -0.1395 
  38   0.0000       0.001633         0.0444 
  39   0.0000       0.010703         0.2913 
  40   0.0000       0.012006         0.3267 
  41   0.0000       0.016803         0.4572 
  42   0.0000       0.026583         0.7234 
  43   0.0000       0.051432         1.3995 
  44   0.0000       0.054249         1.4762 
  45   0.0000       0.064524         1.7558 
  46   0.0000       0.067822         1.8455 
  47   0.0000       0.085748         2.3333 
  48   0.0000       0.092125         2.5069 
  49   0.0000       0.100121         2.7244 
  50   0.0000       0.103629         2.8199 
  51   0.0000       0.115985         3.1561 
  52   0.0000       0.124033         3.3751 
  53   0.0000       0.140745         3.8299 
  54   0.0000       0.145330         3.9546 
  55   0.0000       0.153418         4.1747 
  56   0.0000       0.156003         4.2451 
  57   0.0000       0.160230         4.3601 
  58   0.0000       0.175907         4.7867 
  59   0.0000       0.177760         4.8371 
  60   0.0000       0.187914         5.1134 
  61   0.0000       0.193718         5.2713 
  62   0.0000       0.201912         5.4943 
  63   0.0000       0.212356         5.7785 
  64   0.0000       0.241212         6.5637 
  65   0.0000       0.253310         6.8929 
  66   0.0000       0.270908         7.3718 
  67   0.0000       0.278791         7.5863 
  68   0.0000       0.293159         7.9773 
  69   0.0000       0.294095         8.0027 
  70   0.0000       0.324862         8.8399 
  71   0.0000       0.333607         9.0779 
  72   0.0000       0.334128         9.0921 
  73   0.0000       0.352760         9.5991 
  74   0.0000       0.358775         9.7628 
  75   0.0000       0.362406         9.8616 
  76   0.0000       0.372124        10.1260 
  77   0.0000       0.394427        10.7329 
  78   0.0000       0.394973        10.7478 
  79   0.0000       0.408723        11.1219 
  80   0.0000       0.420223        11.4349 
  81   0.0000       0.451166        12.2769 
  82   0.0000       0.456433        12.4202 
  83   0.0000       0.472173        12.8485 
  84   0.0000       0.489189        13.3115 
  85   0.0000       0.495385        13.4801 
  86   0.0000       0.503955        13.7133 
  87   0.0000       0.510186        13.8829 
  88   0.0000       0.513305        13.9677 
  89   0.0000       0.537405        14.6235 
  90   0.0000       0.547660        14.9026 
  91   0.0000       0.558177        15.1888 
  92   0.0000       0.561734        15.2856 
  93   0.0000       0.575214        15.6524 
  94   0.0000       0.591527        16.0963 
  95   0.0000       0.591620        16.0988 
  96   0.0000       0.596821        16.2403 
  97   0.0000       0.609999        16.5989 
  98   0.0000       0.612489        16.6667 
  99   0.0000       0.629133        17.1196 
 100   0.0000       0.655800        17.8452 
 101   0.0000       0.659509        17.9461 
 102   0.0000       0.677179        18.4270 
 103   0.0000       0.685341        18.6491 
 104   0.0000       0.706965        19.2375 
 105   0.0000       0.723188        19.6789 
 106   0.0000       0.724579        19.7168 
 107   0.0000       0.728473        19.8228 
 108   0.0000       0.733780        19.9672 
 109   0.0000       0.749145        20.3853 
 110   0.0000       0.761581        20.7237 
 111   0.0000       0.761788        20.7293 
 112   0.0000       0.768562        20.9136 
 113   0.0000       0.772522        21.0214 
 114   0.0000       0.816716        22.2240 
 115   0.0000       0.828683        22.5496 
 116   0.0000       0.828827        22.5535 
 117   0.0000       0.836890        22.7729 
 118   0.0000       0.837465        22.7886 
 119   0.0000       0.848469        23.0880 
 120   0.0000       0.851727        23.1767 
 121   0.0000       0.854638        23.2559 
 122   0.0000       0.860913        23.4266 
 123   0.0000       0.886672        24.1276 
 124   0.0000       0.899604        24.4795 
 125   0.0000       0.914336        24.8804 
 126   0.0000       0.942530        25.6476 
 127   0.0000       0.945279        25.7223 
 128   0.0000       0.961366        26.1601 
 129   0.0000       0.973001        26.4767 
 130   0.0000       0.976246        26.5650 
 131   0.0000       0.992716        27.0132 
 132   0.0000       1.018146        27.7052 
 133   0.0000       1.024302        27.8727 
 134   0.0000       1.034352        28.1462 
 135   0.0000       1.064708        28.9722 
 136   0.0000       1.068996        29.0889 
 137   0.0000       1.095339        29.8057 
 138   0.0000       1.123552        30.5734 
 139   0.0000       1.125817        30.6350 
 140   0.0000       1.173385        31.9294 
 141   0.0000       1.182178        32.1687 
 142   0.0000       1.205846        32.8127 
 143   0.0000       1.219750        33.1911 
 144   0.0000       1.258349        34.2414 
 145   0.0000       1.282401        34.8959 
 146   0.0000       1.303892        35.4807 
 147   0.0000       1.350928        36.7606 
 148   0.0000       1.359372        36.9904 
 149   0.0000       1.368339        37.2344 
 150   0.0000       1.387150        37.7463 
 151   0.0000       1.393855        37.9287 
 152   0.0000       1.410176        38.3728 
 153   0.0000       1.415554        38.5192 
 154   0.0000       1.426786        38.8248 
 155   0.0000       1.451090        39.4862 
 156   0.0000       1.485870        40.4326 
 157   0.0000       1.496539        40.7229 
 158   0.0000       1.521816        41.4107 
 159   0.0000       1.525354        41.5070 
 160   0.0000       1.561031        42.4778 
 161   0.0000       1.564922        42.5837 
 162   0.0000       1.572406        42.7873 
 163   0.0000       1.591545        43.3082 
 164   0.0000       1.609152        43.7872 
 165   0.0000       1.621109        44.1126 
 166   0.0000       1.621791        44.1312 
 167   0.0000       1.626090        44.2482 
 168   0.0000       1.630678        44.3730 
 169   0.0000       1.659349        45.1532 
 170   0.0000       1.675282        45.5867 
 171   0.0000       1.696895        46.1749 
 172   0.0000       1.736624        47.2559 
 173   0.0000       1.743160        47.4338 
 174   0.0000       1.748687        47.5842 
 175   0.0000       1.755754        47.7765 
 176   0.0000       1.777642        48.3721 
 177   0.0000       1.783459        48.5304 
 178   0.0000       1.784954        48.5711 
 179   0.0000       1.805323        49.1253 
 180   0.0000       1.812380        49.3174 
 181   0.0000       1.818576        49.4860 
 182   0.0000       1.827069        49.7171 
 183   0.0000       1.837064        49.9890 
 184   0.0000       1.862169        50.6722 
 185   0.0000       1.868073        50.8329 
 186   0.0000       1.870636        50.9026 
 187   0.0000       1.909725        51.9663 
 188   0.0000       1.922164        52.3047 
 189   0.0000       1.932633        52.5896 
 190   0.0000       1.953127        53.1473 
 191   0.0000       1.966826        53.5201 
 192   0.0000       1.973200        53.6935 
 193   0.0000       1.979321        53.8601 
 194   0.0000       2.023995        55.0757 
 195   0.0000       2.026255        55.1372 
 196   0.0000       2.035245        55.3818 
 197   0.0000       2.038736        55.4768 
 198   0.0000       2.062482        56.1230 
 199   0.0000       2.063009        56.1373 
 200   0.0000       2.065395        56.2023 
 201   0.0000       2.072286        56.3898 
 202   0.0000       2.086225        56.7691 
 203   0.0000       2.088654        56.8352 
 204   0.0000       2.104790        57.2742 
 205   0.0000       2.112277        57.4780 
 206   0.0000       2.114916        57.5498 
 207   0.0000       2.123210        57.7755 
 208   0.0000       2.153389        58.5967 
 209   0.0000       2.183149        59.4065 
 210   0.0000       2.189856        59.5890 
 211   0.0000       2.232110        60.7388 
 212   0.0000       2.238450        60.9113 
 213   0.0000       2.243285        61.0429 
 214   0.0000       2.253421        61.3187 
 215   0.0000       2.256251        61.3957 
 216   0.0000       2.262622        61.5691 
 217   0.0000       2.266314        61.6695 
 218   0.0000       2.279032        62.0156 
 219   0.0000       2.280667        62.0601 
 220   0.0000       2.304558        62.7102 
 221   0.0000       2.312343        62.9221 
 222   0.0000       2.332162        63.4614 
 223   0.0000       2.339608        63.6640 
 224   0.0000       2.369597        64.4800 
 225   0.0000       2.379749        64.7563 
 226   0.0000       2.380467        64.7758 
 227   0.0000       2.389086        65.0103 
 228   0.0000       2.408305        65.5333 
 229   0.0000       2.421662        65.8968 
 230   0.0000       2.432647        66.1957 
 231   0.0000       2.438148        66.3454 
 232   0.0000       2.442501        66.4638 
 233   0.0000       2.447752        66.6067 
 234   0.0000       2.460755        66.9606 
 235   0.0000       2.467658        67.1484 
 236   0.0000       2.469180        67.1898 
 237   0.0000       2.488510        67.7158 
 238   0.0000       2.492335        67.8199 
 239   0.0000       2.537475        69.0482 
 240   0.0000       2.540784        69.1382 
 241   0.0000       2.562306        69.7239 
 242   0.0000       2.573090        70.0173 
 243   0.0000       2.593969        70.5855 
 244   0.0000       2.602782        70.8253 
 245   0.0000       2.605459        70.8982 
 246   0.0000       2.626084        71.4594 
 247   0.0000       2.632875        71.6442 
 248   0.0000       2.636180        71.7341 
 249   0.0000       2.655353        72.2558 
 250   0.0000       2.657313        72.3092 
 251   0.0000       2.678872        72.8958 
 252   0.0000       2.718665        73.9786 
 253   0.0000       2.735369        74.4332 
 254   0.0000       2.758003        75.0491 
 255   0.0000       2.777201        75.5715 
 256   0.0000       2.797079        76.1124 
 257   0.0000       2.812554        76.5335 
 258   0.0000       2.817707        76.6737 
 259   0.0000       2.841595        77.3237 
 260   0.0000       2.842131        77.3383 
 261   0.0000       2.857982        77.7697 
 262   0.0000       2.912130        79.2431 
 263   0.0000       2.915804        79.3431 
 264   0.0000       2.938111        79.9501 
 265   0.0000       2.971553        80.8601 
 266   0.0000       2.979498        81.0762 
 267   0.0000       3.014701        82.0342 
 268   0.0000       3.030030        82.4513 
 269   0.0000       3.085023        83.9477 
 270   0.0000       3.086658        83.9922 
 271   0.0000       3.112728        84.7016 
 272   0.0000       3.135083        85.3099 
 273   0.0000       3.136917        85.3599 
 274   0.0000       3.179403        86.5160 
 275   0.0000       3.183723        86.6335 
 276   0.0000       3.203738        87.1781 
 277   0.0000       3.207090        87.2694 
 278   0.0000       3.243604        88.2630 
 279   0.0000       3.250266        88.4442 
 280   0.0000       3.256876        88.6241 
 281   0.0000       3.277320        89.1804 
 282   0.0000       3.281543        89.2953 
 283   0.0000       3.307840        90.0109 
 284   0.0000       3.323314        90.4320 
 285   0.0000       3.335273        90.7574 
 286   0.0000       3.370146        91.7063 
 287   0.0000       3.378827        91.9426 
 288   0.0000       3.402703        92.5923 
 289   0.0000       3.441551        93.6494 
 290   0.0000       3.463651        94.2507 
 291   0.0000       3.478241        94.6478 
 292   0.0000       3.485496        94.8452 
 293   0.0000       3.533522        96.1520 
 294   0.0000       3.541337        96.3647 
 295   0.0000       3.589312        97.6701 
 296   0.0000       3.638192        99.0002 
 297   0.0000       3.678474       100.0964 
 298   0.0000       3.690712       100.4294 
 299   0.0000       3.709952       100.9529 
 300   0.0000       3.751388       102.0805 
 301   0.0000       3.760202       102.3203 
 302   0.0000       3.862110       105.0934 
 303   0.0000       3.875097       105.4467 
 304   0.0000       3.882924       105.6597 
 305   0.0000       3.905846       106.2835 
 306   0.0000       3.939777       107.2068 
 307   0.0000       3.949091       107.4602 
 308   0.0000       3.954027       107.5945 
 309   0.0000       4.037095       109.8550 
 310   0.0000       4.053810       110.3098 
 311   0.0000       4.088962       111.2663 
 312   0.0000       4.149501       112.9137 
 313   0.0000       4.157021       113.1183 
 314   0.0000       4.252883       115.7268 
 315   0.0000       4.299626       116.9988 
 316   0.0000       4.337282       118.0234 
 317   0.0000       4.355022       118.5062 
 318   0.0000       4.400414       119.7414 
 319   0.0000       4.424322       120.3919 
 320   0.0000       4.494411       122.2991 
 321   0.0000       4.510759       122.7440 
 322   0.0000       4.547538       123.7448 
 323   0.0000       4.617640       125.6524 
 324   0.0000       4.635052       126.1262 
 325   0.0000       4.650426       126.5445 
 326   0.0000       4.710119       128.1689 
 327   0.0000       4.727613       128.6449 
 328   0.0000       4.743289       129.0715 
 329   0.0000       4.773163       129.8844 
 330   0.0000       4.828980       131.4032 
 331   0.0000       4.839428       131.6875 
 332   0.0000       4.859701       132.2392 
 333   0.0000       4.876076       132.6848 
 334   0.0000       4.888243       133.0159 
 335   0.0000       4.933493       134.2472 
 336   0.0000       4.955505       134.8462 
 337   0.0000       4.984106       135.6244 
[...]
      dxy     :     0.018245
      f0      :     0.000942  f :     0.009019
      f+1     :     0.000848
      f-1     :     0.000365
      f+2     :     0.000640
      f-2     :     0.000956
      f+3     :     0.003189
      f-3     :     0.002079
  8 H s       :     0.775321  s :     0.775321
      pz      :     0.039451  p :     0.176774
      px      :     0.040588
      py      :     0.096735
      dz2     :     0.004858  d :     0.060641
      dxz     :     0.000370
      dyz     :     0.016604
      dx2y2   :     0.015223
      dxy     :     0.023587
      f0      :     0.000857  f :     0.008997
      f+1     :     0.000245
      f-1     :     0.000992
      f+2     :     0.001399
      f-2     :     0.000074
      f+3     :     0.003331
      f-3     :     0.002097
  9 H s       :     0.775424  s :     0.775424
      pz      :     0.045195  p :     0.180092
      px      :     0.078341
      py      :     0.056556
      dz2     :     0.004829  d :     0.061700
      dxz     :     0.012522
      dyz     :     0.006268
      dx2y2   :     0.022223
      dxy     :     0.015858
      f0      :     0.000943  f :     0.009019
      f+1     :     0.000745
      f-1     :     0.000467
      f+2     :     0.000221
      f-2     :     0.001374
      f+3     :     0.003221
      f-3     :     0.002047
 10 H s       :     0.775902  s :     0.775902
      pz      :     0.048073  p :     0.182569
      px      :     0.085643
      py      :     0.048853
      dz2     :     0.004860  d :     0.062542
      dxz     :     0.015674
      dyz     :     0.003940
      dx2y2   :     0.019829
      dxy     :     0.018238
      f0      :     0.000984  f :     0.009097
      f+1     :     0.000849
      f-1     :     0.000356
      f+2     :     0.000654
      f-2     :     0.001024
      f+3     :     0.003175
      f-3     :     0.002055
 11 N s       :     2.713200  s :     2.713200
      pz      :     1.095918  p :     3.232947
      px      :     1.073284
      py      :     1.063745
      dz2     :     0.015595  d :     0.212324
      dxz     :     0.015692
      dyz     :     0.033161
      dx2y2   :     0.061045
      dxy     :     0.086831
      f0      :     0.003273  f :     0.033889
      f+1     :     0.000667
      f-1     :     0.002918
      f+2     :     0.006246
      f-2     :     0.003483
      f+3     :     0.010763
      f-3     :     0.006538
      g0      :     0.000192  g :     0.001711
      g+1     :     0.000147
      g-1     :     0.000237
      g+2     :     0.000201
      g-2     :     0.000096
      g+3     :     0.000035
      g-3     :     0.000210
      g+4     :     0.000127
      g-4     :     0.000466
 12 H s       :     0.694879  s :     0.694879
      pz      :     0.099129  p :     0.285560
      px      :     0.109847
      py      :     0.076584
      dz2     :     0.015495  d :     0.116238
      dxz     :     0.029075
      dyz     :     0.013479
      dx2y2   :     0.032792
      dxy     :     0.025397
      f0      :     0.001488  f :     0.021026
      f+1     :     0.003663
      f-1     :     0.001724
      f+2     :     0.001827
      f-2     :     0.003582
      f+3     :     0.005656
      f-3     :     0.003086
 13 H s       :     0.694900  s :     0.694900
      pz      :     0.099268  p :     0.285594
      px      :     0.119056
      py      :     0.067269
      dz2     :     0.015592  d :     0.116254
      dxz     :     0.033830
      dyz     :     0.008700
      dx2y2   :     0.028932
      dxy     :     0.029200
      f0      :     0.001475  f :     0.021030
      f+1     :     0.004380
      f-1     :     0.001036
      f+2     :     0.002614
      f-2     :     0.002800
      f+3     :     0.005342
      f-3     :     0.003382

SPIN
  0 C s       :     0.000850  s :     0.000850
      pz      :     0.090408  p :     0.086432
      px      :    -0.001573
      py      :    -0.002403
      dz2     :    -0.000133  d :     0.051579
      dxz     :     0.009239
      dyz     :     0.039536
      dx2y2   :     0.001612
      dxy     :     0.001325
      f0      :     0.000833  f :     0.016966
      f+1     :    -0.000115
      f-1     :    -0.000034
      f+2     :     0.013099
      f-2     :     0.002243
      f+3     :     0.000454
      f-3     :     0.000486
      g0      :     0.000005  g :     0.001657
      g+1     :     0.000164
      g-1     :     0.001205
      g+2     :     0.000030
      g-2     :    -0.000029
      g+3     :     0.000007
      g-3     :     0.000177
      g+4     :     0.000055
      g-4     :     0.000044
  1 C s       :     0.002276  s :     0.002276
      pz      :     0.105767  p :     0.108137
      px      :     0.000566
      py      :     0.001803
      dz2     :    -0.000608  d :     0.004053
      dxz     :     0.006315
      dyz     :    -0.000462
      dx2y2   :    -0.000492
      dxy     :    -0.000698
      f0      :    -0.000483  f :     0.002335
      f+1     :    -0.000159
      f-1     :    -0.000120
      f+2     :     0.002612
      f-2     :     0.000831
      f+3     :    -0.000244
      f-3     :    -0.000102
      g0      :    -0.000004  g :     0.000079
      g+1     :     0.000170
      g-1     :    -0.000029
      g+2     :    -0.000007
      g-2     :    -0.000022
      g+3     :     0.000044
      g-3     :    -0.000045
      g+4     :    -0.000015
      g-4     :    -0.000013
  2 C s       :    -0.001537  s :    -0.001537
      pz      :    -0.028213  p :    -0.033644
      px      :    -0.002522
      py      :    -0.002909
      dz2     :     0.000277  d :     0.044115
      dxz     :     0.009179
      dyz     :     0.032503
      dx2y2   :     0.000924
      dxy     :     0.001232
      f0      :     0.001119  f :     0.011228
      f+1     :     0.000038
      f-1     :     0.000016
      f+2     :     0.004207
      f-2     :     0.005328
      f+3     :     0.000218
      f-3     :     0.000302
      g0      :    -0.000001  g :     0.001009
      g+1     :     0.000232
      g-1     :     0.000534
      g+2     :     0.000010
      g-2     :    -0.000009
      g+3     :     0.000014
      g-3     :     0.000169
      g+4     :     0.000029
      g-4     :     0.000033
  3 C s       :     0.004949  s :     0.004949
      pz      :     0.212169  p :     0.219584
      px      :     0.003842
      py      :     0.003573
      dz2     :    -0.001231  d :    -0.012197
      dxz     :    -0.006917
      dyz     :    -0.002381
      dx2y2   :    -0.000854
      dxy     :    -0.000814
      f0      :    -0.001327  f :    -0.003391
      f+1     :    -0.000223
      f-1     :    -0.000272
      f+2     :     0.000456
      f-2     :    -0.001560
      f+3     :    -0.000185
      f-3     :    -0.000281
      g0      :    -0.000002  g :    -0.000395
      g+1     :    -0.000156
      g-1     :    -0.000018
      g+2     :    -0.000021
      g-2     :    -0.000017
      g+3     :    -0.000006
      g-3     :    -0.000125
      g+4     :    -0.000028
      g-4     :    -0.000022
  4 C s       :    -0.001538  s :    -0.001538
      pz      :    -0.028228  p :    -0.033658
      px      :    -0.002913
      py      :    -0.002517
      dz2     :     0.000282  d :     0.044110
      dxz     :     0.014621
      dyz     :     0.027050
      dx2y2   :     0.001094
      dxy     :     0.001062
      f0      :     0.001118  f :     0.011229
      f+1     :     0.000032
      f-1     :     0.000023
      f+2     :     0.006839
      f-2     :     0.002697
      f+3     :     0.000230
      f-3     :     0.000291
      g0      :    -0.000001  g :     0.001009
      g+1     :     0.000332
      g-1     :     0.000433
      g+2     :     0.000006
      g-2     :    -0.000005
      g+3     :     0.000012
      g-3     :     0.000170
      g+4     :     0.000036
      g-4     :     0.000025
  5 C s       :     0.002276  s :     0.002276
      pz      :     0.105763  p :     0.108137
      px      :     0.000816
      py      :     0.001558
      dz2     :    -0.000612  d :     0.004053
      dxz     :     0.004781
      dyz     :     0.001074
      dx2y2   :    -0.000822
      dxy     :    -0.000368
      f0      :    -0.000483  f :     0.002334
      f+1     :    -0.000161
      f-1     :    -0.000119
      f+2     :     0.001270
      f-2     :     0.002171
      f+3     :    -0.000304
      f-3     :    -0.000041
      g0      :    -0.000004  g :     0.000079
      g+1     :     0.000136
      g-1     :     0.000005
      g+2     :    -0.000003
      g-2     :    -0.000026
      g+3     :     0.000013
      g-3     :    -0.000014
      g+4     :    -0.000011
      g-4     :    -0.000018
  6 H s       :    -0.002969  s :    -0.002969
      pz      :     0.008198  p :     0.009054
      px      :     0.000577
      py      :     0.000279
      dz2     :    -0.000010  d :     0.003952
      dxz     :     0.002938
      dyz     :     0.000820
      dx2y2   :     0.000049
      dxy     :     0.000156
      f0      :     0.000195  f :     0.000565
      f+1     :    -0.000003
      f-1     :    -0.000001
      f+2     :     0.000083
      f-2     :     0.000271
      f+3     :     0.000007
      f-3     :     0.000014
  7 H s       :     0.000817  s :     0.000817
      pz      :    -0.002726  p :    -0.003518
      px      :    -0.000427
      py      :    -0.000365
      dz2     :    -0.000003  d :    -0.001267
      dxz     :    -0.000632
      dyz     :    -0.000350
      dx2y2   :    -0.000148
      dxy     :    -0.000134
      f0      :    -0.000060  f :    -0.000191
      f+1     :    -0.000001
      f-1     :    -0.000001
      f+2     :     0.000002
      f-2     :    -0.000090
      f+3     :    -0.000033
      f-3     :    -0.000008
  8 H s       :    -0.005589  s :    -0.005589
      pz      :     0.017713  p :     0.019767
      px      :     0.000127
      py      :     0.001927
      dz2     :    -0.000012  d :     0.007943
      dxz     :     0.000029
      dyz     :     0.007363
      dx2y2   :     0.000363
      dxy     :     0.000198
      f0      :     0.000387  f :     0.001119
      f+1     :    -0.000001
      f-1     :    -0.000004
      f+2     :     0.000656
      f-2     :     0.000015
      f+3     :     0.000038
      f-3     :     0.000029
  9 H s       :     0.000817  s :     0.000817
      pz      :    -0.002729  p :    -0.003520
      px      :    -0.000422
      py      :    -0.000370
      dz2     :    -0.000003  d :    -0.001268
      dxz     :    -0.000411
      dyz     :    -0.000572
      dx2y2   :    -0.000195
      dxy     :    -0.000087
      f0      :    -0.000060  f :    -0.000191
      f+1     :    -0.000001
      f-1     :    -0.000001
      f+2     :     0.000025
      f-2     :    -0.000113
      f+3     :    -0.000037
      f-3     :    -0.000005
 10 H s       :    -0.002968  s :    -0.002968
      pz      :     0.008199  p :     0.009055
      px      :     0.000704
      py      :     0.000151
      dz2     :    -0.000010  d :     0.003953
      dxz     :     0.003389
      dyz     :     0.000368
      dx2y2   :     0.000089
      dxy     :     0.000116
      f0      :     0.000195  f :     0.000565
      f+1     :    -0.000003
      f-1     :    -0.000001
      f+2     :     0.000195
      f-2     :     0.000159
      f+3     :     0.000010
      f-3     :     0.000011
 11 N s       :     0.010869  s :     0.010869
      pz      :     0.216929  p :     0.233540
      px      :     0.004155
      py      :     0.012456
      dz2     :     0.001037  d :     0.010012
      dxz     :    -0.000301
      dyz     :     0.010558
      dx2y2   :    -0.000561
      dxy     :    -0.000720
      f0      :     0.000975  f :     0.002166
      f+1     :    -0.000025
      f-1     :    -0.000002
      f+2     :     0.001051
      f-2     :    -0.000036
      f+3     :    -0.000062
      f-3     :     0.000265
      g0      :     0.000050  g :     0.000215
      g+1     :    -0.000004
      g-1     :     0.000081
      g+2     :     0.000008
      g-2     :    -0.000002
      g+3     :     0.000006
      g-3     :     0.000082
      g+4     :     0.000000
      g-4     :    -0.000005
 12 H s       :    -0.003316  s :    -0.003316
      pz      :     0.019233  p :     0.021511
      px      :     0.001429
      py      :     0.000849
      dz2     :     0.002668  d :     0.011751
      dxz     :     0.006442
      dyz     :     0.001234
      dx2y2   :     0.000258
      dxy     :     0.001150
      f0      :     0.000117  f :     0.002527
      f+1     :     0.001017
      f-1     :     0.000404
      f+2     :     0.000245
      f-2     :     0.000386
      f+3     :     0.000126
      f-3     :     0.000231
 13 H s       :    -0.003317  s :    -0.003317
      pz      :     0.019238  p :     0.021519
      px      :     0.001721
      py      :     0.000560
      dz2     :     0.002704  d :     0.011754
      dxz     :     0.007164
      dyz     :     0.000474
      dx2y2   :     0.000410
      dxy     :     0.001002
      f0      :     0.000113  f :     0.002527
      f+1     :     0.001215
      f-1     :     0.000218
      f+2     :     0.000429
      f-2     :     0.000194
      f+3     :     0.000060
      f-3     :     0.000299


                      *****************************
                      * MAYER POPULATION ANALYSIS *
                      *****************************

  NA   - Mulliken gross atomic population
  ZA   - Total nuclear charge
  QA   - Mulliken gross atomic charge
  VA   - Mayer's total valence
  BVA  - Mayer's bonded valence
  FA   - Mayer's free valence

  ATOM       NA         ZA         QA         VA         BVA        FA
  0 C      5.7721     6.0000     0.2279     3.6462     3.6188     0.0274
  1 C      5.9591     6.0000     0.0409     3.6898     3.6653     0.0245
  2 C      6.0373     6.0000    -0.0373     3.8190     3.8148     0.0042
  3 C      5.9682     6.0000     0.0318     3.7654     3.6741     0.0913
  4 C      6.0380     6.0000    -0.0380     3.8207     3.8165     0.0042
  5 C      5.9578     6.0000     0.0422     3.6884     3.6639     0.0245
  6 H      0.9088     1.0000     0.0912     0.9955     0.9954     0.0001
  7 H      0.8899     1.0000     0.1101     0.9909     0.9909     0.0000
  8 H      0.8781     1.0000     0.1219     0.9836     0.9833     0.0003
  9 H      0.8892     1.0000     0.1108     0.9906     0.9906     0.0000
 10 H      0.9096     1.0000     0.0904     0.9958     0.9957     0.0001
 11 N      7.2234     7.0000    -0.2234     3.4365     3.3249     0.1115
 12 H      0.7843     1.0000     0.2157     0.9988     0.9985     0.0003
 13 H      0.7841     1.0000     0.2159     0.9987     0.9984     0.0003

  Mayer bond orders larger than 0.100000
B(  0-C ,  1-C ) :   1.0980 B(  0-C ,  5-C ) :   1.0972 B(  0-C , 11-N ) :   1.2674 
B(  1-C ,  2-C ) :   1.4302 B(  1-C ,  6-H ) :   0.9549 B(  2-C ,  3-C ) :   1.2305 
B(  2-C ,  7-H ) :   0.9541 B(  3-C ,  4-C ) :   1.2315 B(  3-C ,  8-H ) :   0.9494 
B(  4-C ,  5-C ) :   1.4302 B(  4-C ,  9-H ) :   0.9541 B(  5-C , 10-H ) :   0.9551 
B( 11-N , 12-H ) :   0.9444 B( 11-N , 13-H ) :   0.9442 

-------
TIMINGS
-------

Total SCF time: 0 days 0 hours 57 min 14 sec 

Total time                  ....    3434.517 sec
Sum of individual times     ....    3395.079 sec  ( 98.9%)

Fock matrix formation       ....    3350.745 sec  ( 97.6%)
  Split-RI-J                ....     147.197 sec  (  4.4% of F)
  Chain of spheres X        ....    2652.411 sec  ( 79.2% of F)
  XC integration            ....     516.754 sec  ( 15.4% of F)
    Basis function eval.    ....      58.220 sec  ( 11.3% of XC)
    Density eval.           ....     200.235 sec  ( 38.7% of XC)
    XC-Functional eval.     ....       5.494 sec  (  1.1% of XC)
    XC-Potential eval.      ....     244.778 sec  ( 47.4% of XC)
Diagonalization             ....       3.936 sec  (  0.1%)
Density matrix formation    ....       0.554 sec  (  0.0%)
Population analysis         ....       1.417 sec  (  0.0%)
Initial guess               ....      11.831 sec  (  0.3%)
Orbital Transformation      ....       0.000 sec  (  0.0%)
Orbital Orthonormalization  ....       0.000 sec  (  0.0%)
DIIS solution               ....       1.335 sec  (  0.0%)
SOSCF solution              ....       6.003 sec  (  0.2%)
Grid generation             ....      19.258 sec  (  0.6%)

Maximum memory used throughout the entire SCF-calculation: 642.7 MB


-------------------------------------------------------------------------------
                          DFT DISPERSION CORRECTION                            
                                                                               
                                 DFTD4 V2.5                                    
-------------------------------------------------------------------------------
The B3LYP functional is recognized
Active option DFTDOPT                   ...         5   

Starting D4
-------------------------   ----------------
Dispersion correction           -0.018866650
-------------------------   ----------------


-------------------------   --------------------
FINAL SINGLE POINT ENERGY      -287.292378916116
-------------------------   --------------------


                            ***************************************
                            *     ORCA property calculations      *
                            ***************************************

                                    ---------------------
                                    Active property flags
                                    ---------------------
   (+) Dipole Moment


------------------------------------------------------------------------------
                       ORCA ELECTRIC PROPERTIES CALCULATION
------------------------------------------------------------------------------

Dipole Moment Calculation                       ... on
Quadrupole Moment Calculation                   ... off
Polarizability Calculation                      ... off
GBWName                                         ... kation.gbw
Electron density                                ... kation.scfp
The origin for moment calculation is the CENTER OF MASS  = (-9.377165,  3.841028  0.042451)

-------------
DIPOLE MOMENT
-------------
                                X             Y             Z
Electronic contribution:      0.01385       0.17044      -0.19061
Nuclear contribution   :      0.05809       0.72683       0.52928
                        -----------------------------------------
Total Dipole Moment    :      0.07195       0.89727       0.33867
                        -----------------------------------------
Magnitude (a.u.)       :      0.96175
Magnitude (Debye)      :      2.44457



--------------------
Rotational spectrum 
--------------------
 
Rotational constants in cm-1:     0.186570     0.086136     0.059004 
Rotational constants in MHz :  5593.219850  2582.294403  1768.887501 

 Dipole components along the rotational axes: 
x,y,z [a.u.] :     0.906647     0.000058     0.320864 
x,y,z [Debye]:     2.304513     0.000148     0.815573 

 

Timings for individual modules:

Sum of individual times         ...     3443.624 sec (=  57.394 min)
GTO integral calculation        ...        8.750 sec (=   0.146 min)   0.3 %
SCF iterations                  ...     3434.874 sec (=  57.248 min)  99.7 %
                             ****ORCA TERMINATED NORMALLY****
TOTAL RUN TIME: 0 days 0 hours 57 minutes 32 seconds 336 msec
