
                                 *****************
                                 * O   R   C   A *
                                 *****************

                                            #,                                       
                                            ###                                      
                                            ####                                     
                                            #####                                    
                                            ######                                   
                                           ########,                                 
                                     ,,################,,,,,                         
                               ,,#################################,,                 
                          ,,##########################################,,             
                       ,#########################################, ''#####,          
                    ,#############################################,,   '####,        
                  ,##################################################,,,,####,       
                ,###########''''           ''''###############################       
              ,#####''   ,,,,##########,,,,          '''####'''          '####       
            ,##' ,,,,###########################,,,                        '##       
           ' ,,###''''                  '''############,,,                           
         ,,##''                                '''############,,,,        ,,,,,,###''
      ,#''                                            '''#######################'''  
     '                                                          ''''####''''         
             ,#######,   #######,   ,#######,      ##                                
            ,#'     '#,  ##    ##  ,#'     '#,    #''#        ######   ,####,        
            ##       ##  ##   ,#'  ##            #'  '#       #        #'  '#        
            ##       ##  #######   ##           ,######,      #####,   #    #        
            '#,     ,#'  ##    ##  '#,     ,#' ,#      #,         ##   #,  ,#        
             '#######'   ##     ##  '#######'  #'      '#     #####' # '####'        



                  #######################################################
                  #                        -***-                        #
                  #          Department of theory and spectroscopy      #
                  #    Directorship and core code : Frank Neese         #
                  #        Max Planck Institute fuer Kohlenforschung    #
                  #                Kaiser Wilhelm Platz 1               #
                  #                 D-45470 Muelheim/Ruhr               #
                  #                      Germany                        #
                  #                                                     #
                  #                  All rights reserved                #
                  #                        -***-                        #
                  #######################################################



                         Program Version 5.0.4 -  RELEASE  -

 With contributions from (in alphabetic order):
   Daniel Aravena         : Magnetic Suceptibility
   Michael Atanasov       : Ab Initio Ligand Field Theory (pilot matlab implementation)
   Alexander A. Auer      : GIAO ZORA, VPT2 properties, NMR spectrum
   Ute Becker             : Parallelization
   Giovanni Bistoni       : ED, misc. LED, open-shell LED, HFLD
   Martin Brehm           : Molecular dynamics
   Dmytro Bykov           : SCF Hessian
   Vijay G. Chilkuri      : MRCI spin determinant printing, contributions to CSF-ICE
   Dipayan Datta          : RHF DLPNO-CCSD density
   Achintya Kumar Dutta   : EOM-CC, STEOM-CC
   Dmitry Ganyushin       : Spin-Orbit,Spin-Spin,Magnetic field MRCI
   Miquel Garcia          : C-PCM and meta-GGA Hessian, CC/C-PCM, Gaussian charge scheme
   Yang Guo               : DLPNO-NEVPT2, F12-NEVPT2, CIM, IAO-localization
   Andreas Hansen         : Spin unrestricted coupled pair/coupled cluster methods
   Benjamin Helmich-Paris : MC-RPA, TRAH-SCF, COSX integrals
   Lee Huntington         : MR-EOM, pCC
   Robert Izsak           : Overlap fitted RIJCOSX, COSX-SCS-MP3, EOM
   Marcus Kettner         : VPT2
   Christian Kollmar      : KDIIS, OOCD, Brueckner-CCSD(T), CCSD density, CASPT2, CASPT2-K
   Simone Kossmann        : Meta GGA functionals, TD-DFT gradient, OOMP2, MP2 Hessian
   Martin Krupicka        : Initial AUTO-CI
   Lucas Lang             : DCDCAS
   Marvin Lechner         : AUTO-CI (C++ implementation), FIC-MRCC
   Dagmar Lenk            : GEPOL surface, SMD
   Dimitrios Liakos       : Extrapolation schemes; Compound Job, initial MDCI parallelization
   Dimitrios Manganas     : Further ROCIS development; embedding schemes
   Dimitrios Pantazis     : SARC Basis sets
   Anastasios Papadopoulos: AUTO-CI, single reference methods and gradients
   Taras Petrenko         : DFT Hessian,TD-DFT gradient, ASA, ECA, R-Raman, ABS, FL, XAS/XES, NRVS
   Peter Pinski           : DLPNO-MP2, DLPNO-MP2 Gradient
   Christoph Reimann      : Effective Core Potentials
   Marius Retegan         : Local ZFS, SOC
   Christoph Riplinger    : Optimizer, TS searches, QM/MM, DLPNO-CCSD(T), (RO)-DLPNO pert. Triples
   Tobias Risthaus        : Range-separated hybrids, TD-DFT gradient, RPA, STAB
   Michael Roemelt        : Original ROCIS implementation
   Masaaki Saitow         : Open-shell DLPNO-CCSD energy and density
   Barbara Sandhoefer     : DKH picture change effects
   Avijit Sen             : IP-ROCIS
   Kantharuban Sivalingam : CASSCF convergence, NEVPT2, FIC-MRCI
   Bernardo de Souza      : ESD, SOC TD-DFT
   Georgi Stoychev        : AutoAux, RI-MP2 NMR, DLPNO-MP2 response
   Willem Van den Heuvel  : Paramagnetic NMR
   Boris Wezisla          : Elementary symmetry handling
   Frank Wennmohs         : Technical directorship


 We gratefully acknowledge several colleagues who have allowed us to
 interface, adapt or use parts of their codes:
   Stefan Grimme, W. Hujo, H. Kruse, P. Pracht,  : VdW corrections, initial TS optimization,
                  C. Bannwarth, S. Ehlert          DFT functionals, gCP, sTDA/sTD-DF
   Ed Valeev, F. Pavosevic, A. Kumar             : LibInt (2-el integral package), F12 methods
   Garnet Chan, S. Sharma, J. Yang, R. Olivares  : DMRG
   Ulf Ekstrom                                   : XCFun DFT Library
   Mihaly Kallay                                 : mrcc  (arbitrary order and MRCC methods)
   Jiri Pittner, Ondrej Demel                    : Mk-CCSD
   Frank Weinhold                                : gennbo (NPA and NBO analysis)
   Christopher J. Cramer and Donald G. Truhlar   : smd solvation model
   Lars Goerigk                                  : TD-DFT with DH, B97 family of functionals
   V. Asgeirsson, H. Jonsson                     : NEB implementation
   FAccTs GmbH                                   : IRC, NEB, NEB-TS, DLPNO-Multilevel, CI-OPT
                                                   MM, QMMM, 2- and 3-layer-ONIOM, Crystal-QMMM,
                                                   LR-CPCM, SF, NACMEs, symmetry and pop. for TD-DFT,
                                                   nearIR, NL-DFT gradient (VV10), updates on ESD,
                                                   ML-optimized integration grids
   S Lehtola, MJT Oliveira, MAL Marques          : LibXC Library
   Liviu Ungur et al                             : ANISO software


 Your calculation uses the libint2 library for the computation of 2-el integrals
 For citations please refer to: http://libint.valeyev.net

 Your ORCA version has been built with support for libXC version: 5.1.0
 For citations please refer to: https://tddft.org/programs/libxc/

 This ORCA versions uses:
   CBLAS   interface :  Fast vector & matrix operations
   LAPACKE interface :  Fast linear algebra routines
   Shared memory     :  Shared parallel matrices


Your calculation utilizes the atom-pairwise dispersion correction
based on tight binding partial charges (D4)
Cite in your paper:
E.Caldeweyher, C.Bannwarth, S.Grimme, J.Chem.Phys., (2017), 147, 034112.
E.Caldeweyher, S.Ehlert, A.Hansen, H.Neugebauer, S.Grimme, J.Chem.Phys., (2018), in progress.
   

================================================================================

----- Orbital basis set information -----
Your calculation utilizes the basis: def2-SVP
   F. Weigend and R. Ahlrichs, Phys. Chem. Chem. Phys. 7, 3297 (2005).

----- AuxJ basis set information -----
Your calculation utilizes the auxiliary basis: def2/J
   F. Weigend, Phys. Chem. Chem. Phys. 8, 1057 (2006).

================================================================================
                                        WARNINGS
                       Please study these warnings very carefully!
================================================================================


WARNING: Geometry Optimization
  ===> : Switching off AutoStart
         For restart on a previous wavefunction, please use MOREAD

INFO   : the flag for use of the SHARK integral package has been found!

================================================================================
                                       INPUT FILE
================================================================================
NAME = meta_products_optfreq_9.inp
|  1> !B3LYP DEF2-SVP OPT FREQ D4 SOSCF
|  2> 
|  3> %geom 
|  4> convergence tight
|  5> maxIter 1000
|  6> end
|  7> 
|  8> * xyz 1 1
|  9>   C   -2.94949444672740      2.75540253310251     -1.20313399104727
| 10>   C   -4.11441760880234      2.24618390214095     -0.61287909635821
| 11>   C   -4.48838283163972      0.92562818899361     -0.85418234241413
| 12>   C   -3.74305696308190      0.07182122720865     -1.66899492009724
| 13>   C   -2.58541216103812      0.57800359881357     -2.25609692052704
| 14>   C   -2.19561902632856      1.90152441796456     -2.02451332321466
| 15>   C   -2.53183969744997      4.18424632397931     -0.96242443831896
| 16>   H   -4.07662884147365     -0.95241847293368     -1.82663847001818
| 17>   H   -4.73898395383005      2.85979091797571      0.03562031155203
| 18>   H   -1.54315458457058      4.39327960345921     -1.39550548733829
| 19>   H   -2.48763875351146      4.41046393842808      0.11484074161747
| 20>   H   -3.25174090404018      4.88812665417048     -1.41331423966247
| 21>   H   -1.28261419765769      2.28056166525433     -2.49208751924821
| 22>   H   -1.97795401070721     -0.06243690901903     -2.89903338394653
| 23>   N   -5.72062921113976      0.41160650815684     -0.22483594198116
| 24>   O   -6.02724137571748     -0.75166603319536     -0.44042802532830
| 25>   O   -6.36745626184255      1.17633475534410      0.47645038543754
| 26>   H   -13.69998517044117     -3.39245281984390      3.20861666089367
| 27> **                         ****END OF INPUT****
================================================================================

                       *****************************
                       * Geometry Optimization Run *
                       *****************************

Geometry optimization settings:
Update method            Update   .... BFGS
Choice of coordinates    CoordSys .... Z-matrix Internals
Initial Hessian          InHess   .... Almoef's Model

Convergence Tolerances:
Energy Change            TolE     ....  1.0000e-06 Eh
Max. Gradient            TolMAXG  ....  1.0000e-04 Eh/bohr
RMS Gradient             TolRMSG  ....  3.0000e-05 Eh/bohr
Max. Displacement        TolMAXD  ....  1.0000e-03 bohr
RMS Displacement         TolRMSD  ....  6.0000e-04 bohr
Strict Convergence                ....  False
------------------------------------------------------------------------------
                        ORCA OPTIMIZATION COORDINATE SETUP
------------------------------------------------------------------------------

The optimization will be done in new redundant internal coordinates
Making redundant internal coordinates   ...  (new redundants) done
Evaluating the initial hessian          ...  (Almloef) done
Evaluating the coordinates              ...  done
Calculating the B-matrix                .... done
Calculating the G-matrix                .... done
Diagonalizing the G-matrix              .... done
Small eigenvalue found = 6.764e-03
The first mode is                       ....   52
The number of degrees of freedom        ....   48

    -----------------------------------------------------------------
                    Redundant Internal Coordinates


    -----------------------------------------------------------------
         Definition                    Initial Value    Approx d2E/dq
    -----------------------------------------------------------------
      1. B(C   1,C   0)                  1.4017         0.598521   
      2. B(C   2,C   1)                  1.3935         0.616731   
      3. B(C   3,C   2)                  1.3959         0.611497   
      4. B(C   4,C   3)                  1.3932         0.617458   
      5. B(C   5,C   4)                  1.3990         0.604416   
      6. B(C   5,C   0)                  1.4043         0.592789   
      7. B(C   6,C   0)                  1.5080         0.405066   
      8. B(H   7,C   3)                  1.0887         0.361872   
      9. B(H   8,C   1)                  1.0896         0.360678   
     10. B(H   9,C   6)                  1.0994         0.347835   
     11. B(H  10,C   6)                  1.1016         0.345016   
     12. B(H  11,C   6)                  1.1032         0.343079   
     13. B(H  12,C   5)                  1.0936         0.355422   
     14. B(H  13,C   4)                  1.0920         0.357420   
     15. B(N  14,C   2)                  1.4761         0.407931   
     16. B(O  15,N  14)                  1.2222         0.928492   
     17. B(O  16,N  14)                  1.2227         0.926676   
     18. B(H  17,O  16)                  9.0612         0.000000   
     19. B(H  17,O  15)                  8.8972         0.000000   
     20. B(H  17,N  14)                  9.4831         0.000000   
     21. A(C   1,C   0,C   6)          120.4767         0.399881   
     22. A(C   5,C   0,C   6)          121.3870         0.399205   
     23. A(C   1,C   0,C   5)          118.1353         0.427863   
     24. A(C   0,C   1,C   2)          119.6283         0.430914   
     25. A(C   2,C   1,H   8)          118.8755         0.352689   
     26. A(C   0,C   1,H   8)          121.4962         0.350906   
     27. A(C   3,C   2,N  14)          118.7925         0.399318   
     28. A(C   1,C   2,N  14)          118.6988         0.399917   
     29. A(C   1,C   2,C   3)          122.5086         0.432578   
     30. A(C   2,C   3,C   4)          117.8674         0.432669   
     31. A(C   4,C   3,H   7)          122.3707         0.352957   
     32. A(C   2,C   3,H   7)          119.7619         0.352378   
     33. A(C   3,C   4,H  13)          119.8171         0.352218   
     34. A(C   5,C   4,H  13)          119.8207         0.350950   
     35. A(C   3,C   4,C   5)          120.3621         0.431765   
     36. A(C   0,C   5,C   4)          121.4982         0.428616   
     37. A(C   4,C   5,H  12)          119.3236         0.350617   
     38. A(C   0,C   5,H  12)          119.1782         0.349470   
     39. A(H   9,C   6,H  10)          108.0636         0.287332   
     40. A(C   0,C   6,H  10)          111.2092         0.326359   
     41. A(C   0,C   6,H   9)          111.4900         0.326797   
     42. A(H  10,C   6,H  11)          107.1477         0.286715   
     43. A(H   9,C   6,H  11)          107.7296         0.287080   
     44. A(C   0,C   6,H  11)          111.0134         0.326057   
     45. A(O  16,N  14,H  17)           66.3031         0.089255   
     46. A(O  15,N  14,H  17)           58.0597         0.089255   
     47. A(O  15,N  14,O  16)          124.3163         0.489502   
     48. A(C   2,N  14,O  16)          117.9291         0.424289   
     49. A(C   2,N  14,O  15)          117.7546         0.424438   
     50. A(N  14,O  15,H  17)          115.2462         0.089416   
     51. A(N  14,O  16,H  17)          106.5993         0.089363   
     52. A(N  14,H  17,O  15)            6.6941         0.089000   
     53. A(O  15,H  17,O  16)           13.7888         0.089000   
     54. A(N  14,H  17,O  16)            7.0977         0.089000   
     55. D(H   8,C   1,C   0,C   5)    179.8610         0.024689   
     56. D(C   2,C   1,C   0,C   5)     -0.0438         0.024689   
     57. D(C   2,C   1,C   0,C   6)    179.5918         0.024689   
     58. D(H   8,C   1,C   0,C   6)     -0.5034         0.024689   
     59. D(C   3,C   2,C   1,C   0)      0.0777         0.026303   
     60. D(C   3,C   2,C   1,H   8)   -179.8296         0.026303   
     61. D(N  14,C   2,C   1,H   8)      0.2399         0.026303   
     62. D(N  14,C   2,C   1,C   0)   -179.8528         0.026303   
     63. D(H   7,C   3,C   2,N  14)     -0.0922         0.025832   
     64. D(C   4,C   3,C   2,N  14)    179.8323         0.025832   
     65. D(H   7,C   3,C   2,C   1)    179.9774         0.025832   
     66. D(C   4,C   3,C   2,C   1)     -0.0981         0.025832   
     67. D(C   5,C   4,C   3,H   7)   -179.9907         0.026369   
     68. D(H  13,C   4,C   3,C   2)    179.9698         0.026369   
     69. D(C   5,C   4,C   3,C   2)      0.0869         0.026369   
     70. D(H  13,C   4,C   3,H   7)     -0.1078         0.026369   
     71. D(H  12,C   5,C   4,H  13)     -0.0244         0.025204   
     72. D(C   0,C   5,C   4,C   3)     -0.0587         0.025204   
     73. D(H  12,C   5,C   4,C   3)    179.8584         0.025204   
     74. D(H  12,C   5,C   0,C   6)      0.4863         0.024194   
     75. D(C   0,C   5,C   4,H  13)   -179.9415         0.025204   
     76. D(H  12,C   5,C   0,C   1)   -179.8816         0.024194   
     77. D(C   4,C   5,C   0,C   6)   -179.5965         0.024194   
     78. D(C   4,C   5,C   0,C   1)      0.0356         0.024194   
     79. D(H  11,C   6,C   0,C   5)    113.0849         0.012164   
     80. D(H  11,C   6,C   0,C   1)    -66.5387         0.012164   
     81. D(H  10,C   6,C   0,C   5)   -127.7155         0.012164   
     82. D(H  10,C   6,C   0,C   1)     52.6609         0.012164   
     83. D(H   9,C   6,C   0,C   5)     -7.0362         0.012164   
     84. D(H   9,C   6,C   0,C   1)    173.3402         0.012164   
     85. D(O  15,N  14,C   2,C   1)   -179.4879         0.014198   
     86. D(O  16,N  14,C   2,C   3)   -179.3803         0.014198   
     87. D(O  16,N  14,C   2,C   1)      0.5528         0.014198   
     88. D(O  15,N  14,C   2,C   3)      0.5790         0.014198   
     89. D(H  17,O  15,N  14,O  16)      2.6369         0.091032   
     90. D(H  17,O  15,N  14,C   2)   -177.3196         0.091032   
     91. D(H  17,O  16,N  14,O  15)     -2.4436         0.090620   
     92. D(H  17,O  16,N  14,C   2)    177.5128         0.090620   
     93. D(O  15,H  17,O  16,N  14)      1.1629         0.001500   
     94. D(O  16,H  17,O  15,N  14)     -1.2327         0.001500   
     95. D(O  16,H  17,N  14,O  15)    177.6217         0.001500   
     96. D(O  15,H  17,N  14,O  16)   -177.6217         0.001500   
     97. D(O  16,H  17,C   2,C   3)    178.3051         0.001500   
     98. D(O  16,H  17,C   2,C   1)     -3.8940         0.001500   
     99. D(O  15,H  17,C   2,C   3)      5.8502         0.001500   
    100. D(O  15,H  17,C   2,C   1)   -176.3489         0.001500   
    -----------------------------------------------------------------

Number of atoms                         .... 18
Number of degrees of freedom            .... 100

         *************************************************************
         *                GEOMETRY OPTIMIZATION CYCLE   1            *
         *************************************************************
---------------------------------
CARTESIAN COORDINATES (ANGSTROEM)
---------------------------------
  C     -2.949494    2.755403   -1.203134
  C     -4.114418    2.246184   -0.612879
  C     -4.488383    0.925628   -0.854182
  C     -3.743057    0.071821   -1.668995
  C     -2.585412    0.578004   -2.256097
  C     -2.195619    1.901524   -2.024513
  C     -2.531840    4.184246   -0.962424
  H     -4.076629   -0.952418   -1.826638
  H     -4.738984    2.859791    0.035620
  H     -1.543155    4.393280   -1.395505
  H     -2.487639    4.410464    0.114841
  H     -3.251741    4.888127   -1.413314
  H     -1.282614    2.280562   -2.492088
  H     -1.977954   -0.062437   -2.899033
  N     -5.720629    0.411607   -0.224836
  O     -6.027241   -0.751666   -0.440428
  O     -6.367456    1.176335    0.476450
  H    -13.699985   -3.392453    3.208617

----------------------------
CARTESIAN COORDINATES (A.U.)
----------------------------
  NO LB      ZA    FRAG     MASS         X           Y           Z
   0 C     6.0000    0    12.011   -5.573737    5.206956   -2.273594
   1 C     6.0000    0    12.011   -7.775122    4.244672   -1.158174
   2 C     6.0000    0    12.011   -8.481814    1.749184   -1.614171
   3 C     6.0000    0    12.011   -7.073353    0.135722   -3.153943
   4 C     6.0000    0    12.011   -4.885721    1.092269   -4.263405
   5 C     6.0000    0    12.011   -4.149119    3.593360   -3.825776
   6 C     6.0000    0    12.011   -4.784484    7.907080   -1.818719
   7 H     1.0000    0     1.008   -7.703712   -1.799810   -3.451846
   8 H     1.0000    0     1.008   -8.955382    5.404222    0.067313
   9 H     1.0000    0     1.008   -2.916140    8.302095   -2.637123
  10 H     1.0000    0     1.008   -4.700956    8.334569    0.217018
  11 H     1.0000    0     1.008   -6.144900    9.237221   -2.670777
  12 H     1.0000    0     1.008   -2.423790    4.309637   -4.709363
  13 H     1.0000    0     1.008   -3.737791   -0.117989   -5.478379
  14 N     7.0000    0    14.007  -10.810423    0.777824   -0.424878
  15 O     8.0000    0    15.999  -11.389836   -1.420443   -0.832288
  16 O     8.0000    0    15.999  -12.032749    2.222951    0.900361
  17 H     1.0000    0     1.008  -25.889220   -6.410807    6.063407

--------------------------------
INTERNAL COORDINATES (ANGSTROEM)
--------------------------------
 C      0   0   0     0.000000000000     0.00000000     0.00000000
 C      1   0   0     1.401695554805     0.00000000     0.00000000
 C      2   1   0     1.393536736500   119.62828129     0.00000000
 C      3   2   1     1.395856910677   122.50863772     0.07765206
 C      4   3   2     1.393216006200   117.86738276   359.90188829
 C      5   4   3     1.399027165261   120.36209216     0.08692549
 C      1   2   3     1.507969216230   120.47668364   179.59182373
 H      4   3   2     1.088663699327   119.76186875   179.97738977
 H      2   1   3     1.089563293840   121.49617189   179.90476767
 H      7   1   2     1.099432744364   111.49004115   173.34019459
 H      7   1   2     1.101648038366   111.20921489    52.66087080
 H      7   1   2     1.103180347648   111.01343277   293.46126293
 H      6   5   4     1.093559637517   119.32355167   179.85838160
 H      5   4   3     1.092033307400   119.81714999   179.96975682
 N      3   2   1     1.476050920497   118.69877876   180.14715463
 O     15   3   2     1.222167734533   117.75455110   180.51212680
 O     15   3   2     1.222700715053   117.92911612     0.55282663
 H     16  15   3     8.897206264556   115.24621086   182.68044549

---------------------------
INTERNAL COORDINATES (A.U.)
---------------------------
 C      0   0   0     0.000000000000     0.00000000     0.00000000
 C      1   0   0     2.648820721717     0.00000000     0.00000000
 C      2   1   0     2.633402789543   119.62828129     0.00000000
 C      3   2   1     2.637787283321   122.50863772     0.07765206
 C      4   3   2     2.632796697113   117.86738276   359.90188829
 C      5   4   3     2.643778196259   120.36209216     0.08692549
 C      1   2   3     2.849648837058   120.47668364   179.59182373
 H      4   3   2     2.057276243670   119.76186875   179.97738977
 H      2   1   3     2.058976230930   121.49617189   179.90476767
 H      7   1   2     2.077626789513   111.49004115   173.34019459
 H      7   1   2     2.081813088483   111.20921489    52.66087080
 H      7   1   2     2.084708733378   111.01343277   293.46126293
 H      6   5   4     2.066528226017   119.32355167   179.85838160
 H      5   4   3     2.063643880106   119.81714999   179.96975682
 N      3   2   1     2.789331999461   118.69877876   180.14715463
 O     15   3   2     2.309562307982   117.75455110   180.51212680
 O     15   3   2     2.310569495200   117.92911612     0.55282663
 H     16  15   3    16.813283197019   115.24621086   182.68044549

---------------------
BASIS SET INFORMATION
---------------------
There are 4 groups of distinct atoms

 Group   1 Type C   : 7s4p1d contracted to 3s2p1d pattern {511/31/1}
 Group   2 Type H   : 4s1p contracted to 2s1p pattern {31/1}
 Group   3 Type N   : 7s4p1d contracted to 3s2p1d pattern {511/31/1}
 Group   4 Type O   : 7s4p1d contracted to 3s2p1d pattern {511/31/1}

Atom   0C    basis set group =>   1
Atom   1C    basis set group =>   1
Atom   2C    basis set group =>   1
Atom   3C    basis set group =>   1
Atom   4C    basis set group =>   1
Atom   5C    basis set group =>   1
Atom   6C    basis set group =>   1
Atom   7H    basis set group =>   2
Atom   8H    basis set group =>   2
Atom   9H    basis set group =>   2
Atom  10H    basis set group =>   2
Atom  11H    basis set group =>   2
Atom  12H    basis set group =>   2
Atom  13H    basis set group =>   2
Atom  14N    basis set group =>   3
Atom  15O    basis set group =>   4
Atom  16O    basis set group =>   4
Atom  17H    basis set group =>   2
---------------------------------
AUXILIARY/J BASIS SET INFORMATION
---------------------------------
There are 4 groups of distinct atoms

 Group   1 Type C   : 12s5p4d2f1g contracted to 6s4p3d1f1g pattern {711111/2111/211/2/1}
 Group   2 Type H   : 5s2p1d contracted to 3s1p1d pattern {311/2/1}
 Group   3 Type N   : 12s5p4d2f1g contracted to 6s4p3d1f1g pattern {711111/2111/211/2/1}
 Group   4 Type O   : 12s5p4d2f1g contracted to 6s4p3d1f1g pattern {711111/2111/211/2/1}

Atom   0C    basis set group =>   1
Atom   1C    basis set group =>   1
Atom   2C    basis set group =>   1
Atom   3C    basis set group =>   1
Atom   4C    basis set group =>   1
Atom   5C    basis set group =>   1
Atom   6C    basis set group =>   1
Atom   7H    basis set group =>   2
Atom   8H    basis set group =>   2
Atom   9H    basis set group =>   2
Atom  10H    basis set group =>   2
Atom  11H    basis set group =>   2
Atom  12H    basis set group =>   2
Atom  13H    basis set group =>   2
Atom  14N    basis set group =>   3
Atom  15O    basis set group =>   4
Atom  16O    basis set group =>   4
Atom  17H    basis set group =>   2
------------------------------------------------------------------------------
                           ORCA GTO INTEGRAL CALCULATION
                           -- RI-GTO INTEGRALS CHOSEN --
------------------------------------------------------------------------------
------------------------------------------------------------------------------
                   ___                                                        
                  /   \      - P O W E R E D   B Y -                         
                 /     \                                                     
                 |  |  |   _    _      __       _____    __    __             
                 |  |  |  | |  | |    /  \     |  _  \  |  |  /  |          
                  \  \/   | |  | |   /    \    | | | |  |  | /  /          
                 / \  \   | |__| |  /  /\  \   | |_| |  |  |/  /          
                |  |  |   |  __  | /  /__\  \  |    /   |      \           
                |  |  |   | |  | | |   __   |  |    \   |  |\   \          
                \     /   | |  | | |  |  |  |  | |\  \  |  | \   \       
                 \___/    |_|  |_| |__|  |__|  |_| \__\ |__|  \__/        
                                                                              
                      - O R C A' S   B I G   F R I E N D -                    
                                      &                                       
                       - I N T E G R A L  F E E D E R -                       
                                                                              
 v1 FN, 2020, v2 2021                                                         
------------------------------------------------------------------------------


Reading SHARK input file meta_products_optfreq_9.SHARKINP.tmp ... ok
----------------------
SHARK INTEGRAL PACKAGE
----------------------

Number of atoms                             ...     18
Number of basis functions                   ...    180
Number of shells                            ...     84
Maximum angular momentum                    ...      2
Integral batch strategy                     ... SHARK/LIBINT Hybrid
RI-J (if used) integral strategy            ... SPLIT-RIJ (Revised 2003 algorithm where possible)
Printlevel                                  ...      1
Contraction scheme used                     ... SEGMENTED contraction
Coulomb Range Separation                    ... NOT USED
Exchange Range Separation                   ... NOT USED
Finite Nucleus Model                        ... NOT USED
Auxiliary Coulomb fitting basis             ... AVAILABLE
   # of basis functions in Aux-J            ...    578
   # of shells in Aux-J                     ...    190
   Maximum angular momentum in Aux-J        ...      4
Auxiliary J/K fitting basis                 ... NOT available
Auxiliary Correlation fitting basis         ... NOT available
Auxiliary 'external' fitting basis          ... NOT available
Integral threshold                          ...     2.500000e-11
Primitive cut-off                           ...     2.500000e-12
Primitive pair pre-selection threshold      ...     2.500000e-12

Calculating pre-screening integrals         ... done (  0.0 sec) Dimension = 84
Organizing shell pair data                  ... done (  0.0 sec)
Shell pair information
Total number of shell pairs                 ...      3570
Shell pairs after pre-screening             ...      3018
Total number of primitive shell pairs       ...     13034
Primitive shell pairs kept                  ...      7954
          la=0 lb=0:    904 shell pairs
          la=1 lb=0:   1091 shell pairs
          la=1 lb=1:    351 shell pairs
          la=2 lb=0:    385 shell pairs
          la=2 lb=1:    239 shell pairs
          la=2 lb=2:     48 shell pairs

Calculating one electron integrals          ... done (  0.0 sec)
Calculating RI/J V-Matrix + Cholesky decomp.... done (  0.0 sec)
Calculating Nuclear repulsion               ... done (  0.0 sec) ENN=    497.312916999704 Eh

SHARK setup successfully completed in   0.3 seconds

Maximum memory used throughout the entire GTOINT-calculation: 24.6 MB
-------------------------------------------------------------------------------
                                 ORCA SCF
-------------------------------------------------------------------------------

------------
SCF SETTINGS
------------
Hamiltonian:
 Density Functional     Method          .... DFT(GTOs)
 Exchange Functional    Exchange        .... B88
   X-Alpha parameter    XAlpha          ....  0.666667
   Becke's b parameter  XBeta           ....  0.004200
 Correlation Functional Correlation     .... LYP
 LDA part of GGA corr.  LDAOpt          .... VWN-5
 Gradients option       PostSCFGGA      .... off
 Hybrid DFT is turned on
   Fraction HF Exchange ScalHFX         ....  0.200000
   Scaling of DF-GGA-X  ScalDFX         ....  0.720000
   Scaling of DF-GGA-C  ScalDFC         ....  0.810000
   Scaling of DF-LDA-C  ScalLDAC        ....  1.000000
   Perturbative correction              ....  0.000000
   Density functional embedding theory  .... OFF
   NL short-range parameter             ....  4.800000
 RI-approximation to the Coulomb term is turned on
   Number of AuxJ basis functions       .... 578
   RIJ-COSX (HFX calculated with COS-X)).... on


General Settings:
 Integral files         IntName         .... meta_products_optfreq_9
 Hartree-Fock type      HFTyp           .... RHF
 Total Charge           Charge          ....    1
 Multiplicity           Mult            ....    1
 Number of Electrons    NEL             ....   72
 Basis Dimension        Dim             ....  180
 Nuclear Repulsion      ENuc            ....    497.3129169997 Eh

Convergence Acceleration:
 DIIS                   CNVDIIS         .... on
   Start iteration      DIISMaxIt       ....    12
   Startup error        DIISStart       ....  0.200000
   # of expansion vecs  DIISMaxEq       ....     5
   Bias factor          DIISBfac        ....   1.050
   Max. coefficient     DIISMaxC        ....  10.000
 Trust-Rad. Augm. Hess. CNVTRAH         .... auto
   Auto Start mean grad. ratio tolernc. ....  1.125000
   Auto Start start iteration           ....    20
   Auto Start num. interpolation iter.  ....    10
   Max. Number of Micro iterations      ....    16
   Max. Number of Macro iterations      .... Maxiter - #DIIS iter
   Number of Davidson start vectors     ....     2
   Converg. threshold I  (grad. norm)   ....   1.000e-05
   Converg. threshold II (energy diff.) ....   1.000e-08
   Grad. Scal. Fac. for Micro threshold ....   0.100
   Minimum threshold for Micro iter.    ....   0.010
   NR start threshold (gradient norm)   ....   0.001
   Initial trust radius                 ....   0.400
   Minimum AH scaling param. (alpha)    ....   1.000
   Maximum AH scaling param. (alpha)    .... 1000.000
   Orbital update algorithm             .... Taylor
   White noise on init. David. guess    .... on
   Maximum white noise                  ....   0.010
   Quad. conv. algorithm                .... NR
 SOSCF                  CNVSOSCF        .... on
   Start iteration      SOSCFMaxIt      ....   150
   Startup grad/error   SOSCFStart      ....  0.003300
 Level Shifting         CNVShift        .... on
   Level shift para.    LevelShift      ....    0.2500
   Turn off err/grad.   ShiftErr        ....    0.0010
 Zerner damping         CNVZerner       .... off
 Static damping         CNVDamp         .... on
   Fraction old density DampFac         ....    0.7000
   Max. Damping (<1)    DampMax         ....    0.9800
   Min. Damping (>=0)   DampMin         ....    0.0000
   Turn off err/grad.   DampErr         ....    0.1000
 Fernandez-Rico         CNVRico         .... off

SCF Procedure:
 Maximum # iterations   MaxIter         ....   125
 SCF integral mode      SCFMode         .... Direct
   Integral package                     .... SHARK and LIBINT hybrid scheme
 Reset frequency        DirectResetFreq ....    20
 Integral Threshold     Thresh          ....  2.500e-11 Eh
 Primitive CutOff       TCut            ....  2.500e-12 Eh

Convergence Tolerance:
 Convergence Check Mode ConvCheckMode   .... Total+1el-Energy
 Convergence forced     ConvForced      .... 0
 Energy Change          TolE            ....  1.000e-08 Eh
 1-El. energy change                    ....  1.000e-05 Eh
 Orbital Gradient       TolG            ....  1.000e-05
 Orbital Rotation angle TolX            ....  1.000e-05
 DIIS Error             TolErr          ....  5.000e-07


Diagonalization of the overlap matrix:
Smallest eigenvalue                        ... 2.763e-04
Time for diagonalization                   ...    0.009 sec
Threshold for overlap eigenvalues          ... 1.000e-08
Number of eigenvalues below threshold      ... 0
Time for construction of square roots      ...    0.006 sec
Total time needed                          ...    0.015 sec

Time for model grid setup =    0.410 sec

------------------------------
INITIAL GUESS: MODEL POTENTIAL
------------------------------
Loading Hartree-Fock densities                     ... done
Calculating cut-offs                               ... done
Initializing the effective Hamiltonian             ... done
Setting up the integral package (SHARK)            ... done
Starting the Coulomb interaction                   ... done (   0.3 sec)
Reading the grid                                   ... done
Mapping shells                                     ... done
Starting the XC term evaluation                    ... done (   0.5 sec)
  promolecular density results
     # of electrons  =     72.998353485
     EX              =    -61.274418546
     EC              =     -2.480524574
     EX+EC           =    -63.754943121
Transforming the Hamiltonian                       ... done (   0.0 sec)
Diagonalizing the Hamiltonian                      ... done (   0.0 sec)
Back transforming the eigenvectors                 ... done (   0.0 sec)
Now organizing SCF variables                       ... done
                      ------------------
                      INITIAL GUESS DONE (   1.3 sec)
                      ------------------
-------------------
DFT GRID GENERATION
-------------------

General Integration Accuracy     IntAcc      ... 4.388
Radial Grid Type                 RadialGrid  ... OptM3 with GC (2021)
Angular Grid (max. ang.)         AngularGrid ... 4 (Lebedev-302)
Angular grid pruning method      GridPruning ... 4 (adaptive)
Weight generation scheme         WeightScheme... Becke
Basis function cutoff            BFCut       ... 1.0000e-11
Integration weight cutoff        WCut        ... 1.0000e-14
Angular grids for H and He will be reduced by one unit
Partially contracted basis set               ... off
Rotationally invariant grid construction     ... off

Total number of grid points                  ...    86175
Total number of batches                      ...     1356
Average number of points per batch           ...       63
Average number of grid points per atom       ...     4788
Time for grid setup =    2.738 sec

--------------------
COSX GRID GENERATION
--------------------

GRIDX 1
-------
General Integration Accuracy     IntAcc      ... 3.816
Radial Grid Type                 RadialGrid  ... OptM3 with GC (2021)
Angular Grid (max. ang.)         AngularGrid ... 1 (Lebedev-50)
Angular grid pruning method      GridPruning ... 4 (adaptive)
Weight generation scheme         WeightScheme... Becke
Basis function cutoff            BFCut       ... 1.0000e-11
Integration weight cutoff        WCut        ... 1.0000e-14
Angular grids for H and He will be reduced by one unit
Partially contracted basis set               ... on
Rotationally invariant grid construction     ... off

Total number of grid points                  ...    10962
Total number of batches                      ...      177
Average number of points per batch           ...       61
Average number of grid points per atom       ...      609
UseSFitting                                  ... on

GRIDX 2
-------
General Integration Accuracy     IntAcc      ... 4.020
Radial Grid Type                 RadialGrid  ... OptM3 with GC (2021)
Angular Grid (max. ang.)         AngularGrid ... 2 (Lebedev-110)
Angular grid pruning method      GridPruning ... 4 (adaptive)
Weight generation scheme         WeightScheme... Becke
Basis function cutoff            BFCut       ... 1.0000e-11
Integration weight cutoff        WCut        ... 1.0000e-14
Angular grids for H and He will be reduced by one unit
Partially contracted basis set               ... on
Rotationally invariant grid construction     ... off

Total number of grid points                  ...    24153
Total number of batches                      ...      389
Average number of points per batch           ...       62
Average number of grid points per atom       ...     1342
UseSFitting                                  ... on

GRIDX 3
-------
General Integration Accuracy     IntAcc      ... 4.338
Radial Grid Type                 RadialGrid  ... OptM3 with GC (2021)
Angular Grid (max. ang.)         AngularGrid ... 3 (Lebedev-194)
Angular grid pruning method      GridPruning ... 4 (adaptive)
Weight generation scheme         WeightScheme... Becke
Basis function cutoff            BFCut       ... 1.0000e-11
Integration weight cutoff        WCut        ... 1.0000e-14
Angular grids for H and He will be reduced by one unit
Partially contracted basis set               ... on
Rotationally invariant grid construction     ... off

Total number of grid points                  ...    53244
Total number of batches                      ...      842
Average number of points per batch           ...       63
Average number of grid points per atom       ...     2958
UseSFitting                                  ... on

Time for X-Grid setup             =    2.955 sec

--------------
SCF ITERATIONS
--------------
ITER       Energy         Delta-E        Max-DP      RMS-DP      [F,P]     Damp
               ***  Starting incremental Fock matrix formation  ***
  0   -475.1898228942   0.000000000000 0.20729129  0.00354167  0.2094371 0.7000
  1   -475.4398752319  -0.250052337705 0.15062629  0.00226623  0.0723981 0.7000
                               ***Turning on DIIS***
  2   -475.4314608225   0.008414409395 0.37988533  0.00505933  0.0399162 0.0000
  3   -475.0244857307   0.406975091856 0.18936741  0.00226172  0.2005515 0.7000
  4   -475.4000205332  -0.375534802546 0.44185728  0.00529708  0.0587237 0.0000
  5   -475.4162175770  -0.016197043828 0.02018312  0.00057973  0.0701961 0.0000
  6   -475.4305959992  -0.014378422172 0.00831392  0.00026412  0.0572364 0.0000
  7   -475.4358981257  -0.005302126482 0.02377413  0.00077497  0.0518442 0.0000
  8   -475.4469307426  -0.011032616894 0.00953431  0.00031426  0.0366468 0.0000
  9   -475.4505891317  -0.003658389139 0.02603579  0.00106561  0.0325386 0.0000
 10   -475.4587633462  -0.008174214431 0.01120381  0.00043613  0.0082706 0.0000
 11   -475.4594259284  -0.000662582211 0.00439719  0.00014033  0.0070025 0.0000
                      *** Initiating the SOSCF procedure ***
                           *** Shutting down DIIS ***
                      *** Re-Reading the Fockian *** 
                      *** Removing any level shift *** 
ITER      Energy       Delta-E        Grad      Rot      Max-DP    RMS-DP
 12   -475.45963147  -0.0002055420  0.000986  0.000986  0.001918  0.000058
               *** Restarting incremental Fock matrix formation ***
 13   -475.45965727  -0.0000257965  0.000752  0.003339  0.002830  0.000076
 14   -475.45963652   0.0000207484  0.002507  0.002867  0.002205  0.000044
 15   -475.45966649  -0.0000299699  0.000157  0.000209  0.000506  0.000019
 16   -475.45966611   0.0000003789  0.000197  0.000190  0.000300  0.000010
 17   -475.45966696  -0.0000008485  0.000029  0.000066  0.000092  0.000002
 18   -475.45966694   0.0000000144  0.000044  0.000034  0.000055  0.000001
 19   -475.45966697  -0.0000000265  0.000003  0.000015  0.000010  0.000000
 20   -475.45966697   0.0000000000  0.000004  0.000007  0.000007  0.000000
                  ***Gradient check signals convergence***
              ***Rediagonalizing the Fockian in SOSCF/NRSCF***

               *****************************************************
               *                     SUCCESS                       *
               *           SCF CONVERGED AFTER  21 CYCLES          *
               *****************************************************

Old exchange energy                            =    -12.324713458 Eh
New exchange energy                            =    -12.324726010 Eh
Exchange energy change after final integration =     -0.000012552 Eh
Total energy after final integration           =   -475.459679524 Eh
Final COS-X integration done in                =    18.271 sec

----------------
TOTAL SCF ENERGY
----------------

Total Energy       :         -475.45967952 Eh          -12937.91563 eV

Components:
Nuclear Repulsion  :          497.31291700 Eh           13532.57245 eV
Electronic Energy  :         -972.77259652 Eh          -26470.48809 eV
One Electron Energy:        -1627.69186904 Eh          -44291.74751 eV
Two Electron Energy:          654.91927252 Eh           17821.25942 eV
Max COSX asymmetry :            0.00000199 Eh               0.00005 eV

Virial components:
Potential Energy   :         -946.72524751 Eh          -25761.70368 eV
Kinetic Energy     :          471.26556799 Eh           12823.78805 eV
Virial Ratio       :            2.00889968


DFT components:
N(Alpha)           :       36.000007637125 electrons
N(Beta)            :       36.000007637125 electrons
N(Total)           :       72.000015274250 electrons
E(X)               :      -49.054294564859 Eh       
E(C)               :       -2.906239803084 Eh       
E(XC)              :      -51.960534367943 Eh       
DFET-embed. en.    :        0.000000000000 Eh       

---------------
SCF CONVERGENCE
---------------

  Last Energy change         ...   -2.4428e-09  Tolerance :   1.0000e-08
  Last MAX-Density change    ...    3.1086e-15  Tolerance :   1.0000e-07
  Last RMS-Density change    ...    4.7069e-17  Tolerance :   5.0000e-09
  Last Orbital Gradient      ...    1.0803e-06  Tolerance :   1.0000e-05
  Last Orbital Rotation      ...    2.8763e-06  Tolerance :   1.0000e-05

             **** THE GBW FILE WAS UPDATED (meta_products_optfreq_9.gbw) ****
             **** DENSITY meta_products_optfreq_9.scfp WAS UPDATED ****
             **** ENERGY FILE WAS UPDATED (meta_products_optfreq_9.en.tmp) ****
             **** THE GBW FILE WAS UPDATED (meta_products_optfreq_9.gbw) ****
             **** DENSITY meta_products_optfreq_9.scfp WAS UPDATED ****
----------------
ORBITAL ENERGIES
----------------

  NO   OCC          E(Eh)            E(eV) 
   0   2.0000     -19.210379      -522.7410 
   1   2.0000     -19.210294      -522.7387 
   2   2.0000     -14.606930      -397.4748 
   3   2.0000     -10.293741      -280.1069 
   4   2.0000     -10.263662      -279.2884 
   5   2.0000     -10.259934      -279.1870 
   6   2.0000     -10.258908      -279.1591 
   7   2.0000     -10.256978      -279.1066 
   8   2.0000     -10.256523      -279.0942 
   9   2.0000     -10.242691      -278.7178 
  10   2.0000      -1.269952       -34.5571 
  11   2.0000      -1.095073       -29.7985 
  12   2.0000      -0.929119       -25.2826 
  13   2.0000      -0.852716       -23.2036 
  14   2.0000      -0.822626       -22.3848 
  15   2.0000      -0.748416       -20.3654 
  16   2.0000      -0.736035       -20.0285 
  17   2.0000      -0.659554       -17.9474 
  18   2.0000      -0.624035       -16.9808 
  19   2.0000      -0.598174       -16.2771 
  20   2.0000      -0.588478       -16.0133 
  21   2.0000      -0.560077       -15.2405 
  22   2.0000      -0.551444       -15.0056 
  23   2.0000      -0.527259       -14.3474 
  24   2.0000      -0.498982       -13.5780 
  25   2.0000      -0.478256       -13.0140 
  26   2.0000      -0.477524       -12.9941 
  27   2.0000      -0.444397       -12.0926 
  28   2.0000      -0.427089       -11.6217 
  29   2.0000      -0.424298       -11.5457 
  30   2.0000      -0.410855       -11.1799 
  31   2.0000      -0.361968        -9.8496 
  32   2.0000      -0.359616        -9.7857 
  33   2.0000      -0.342428        -9.3179 
  34   2.0000      -0.327607        -8.9146 
  35   2.0000      -0.314029        -8.5452 
  36   0.0000      -0.494052       -13.4438 
  37   0.0000      -0.137421        -3.7394 
  38   0.0000      -0.075926        -2.0661 
  39   0.0000      -0.046545        -1.2665 
  40   0.0000       0.012118         0.3297 
  41   0.0000       0.029833         0.8118 
  42   0.0000       0.052234         1.4213 
  43   0.0000       0.067579         1.8389 
  44   0.0000       0.075726         2.0606 
  45   0.0000       0.086373         2.3503 
  46   0.0000       0.111150         3.0246 
  47   0.0000       0.117149         3.1878 
  48   0.0000       0.127797         3.4775 
  49   0.0000       0.172951         4.7062 
  50   0.0000       0.186923         5.0864 
  51   0.0000       0.211187         5.7467 
  52   0.0000       0.221438         6.0256 
  53   0.0000       0.231790         6.3073 
  54   0.0000       0.242112         6.5882 
  55   0.0000       0.259703         7.0669 
  56   0.0000       0.287727         7.8294 
  57   0.0000       0.319336         8.6896 
  58   0.0000       0.337028         9.1710 
  59   0.0000       0.351599         9.5675 
  60   0.0000       0.369208        10.0467 
  61   0.0000       0.381332        10.3766 
  62   0.0000       0.390456        10.6249 
  63   0.0000       0.415230        11.2990 
  64   0.0000       0.418807        11.3963 
  65   0.0000       0.432173        11.7600 
  66   0.0000       0.446828        12.1588 
  67   0.0000       0.472596        12.8600 
  68   0.0000       0.507556        13.8113 
  69   0.0000       0.522594        14.2205 
  70   0.0000       0.537130        14.6160 
  71   0.0000       0.547541        14.8994 
  72   0.0000       0.572124        15.5683 
  73   0.0000       0.576168        15.6783 
  74   0.0000       0.579035        15.7563 
  75   0.0000       0.589677        16.0459 
  76   0.0000       0.607226        16.5234 
  77   0.0000       0.616867        16.7858 
  78   0.0000       0.623497        16.9662 
  79   0.0000       0.628479        17.1018 
  80   0.0000       0.644554        17.5392 
  81   0.0000       0.659908        17.9570 
  82   0.0000       0.664684        18.0870 
  83   0.0000       0.676378        18.4052 
  84   0.0000       0.707381        19.2488 
  85   0.0000       0.715153        19.4603 
  86   0.0000       0.731014        19.8919 
  87   0.0000       0.760345        20.6900 
  88   0.0000       0.786963        21.4144 
  89   0.0000       0.827517        22.5179 
  90   0.0000       0.860252        23.4087 
  91   0.0000       0.880071        23.9479 
  92   0.0000       0.915822        24.9208 
  93   0.0000       0.927525        25.2392 
  94   0.0000       0.951890        25.9022 
  95   0.0000       0.968424        26.3521 
  96   0.0000       1.009026        27.4570 
  97   0.0000       1.021750        27.8032 
  98   0.0000       1.053687        28.6723 
  99   0.0000       1.053689        28.6723 
 100   0.0000       1.053726        28.6734 
 101   0.0000       1.085496        29.5378 
 102   0.0000       1.128882        30.7184 
 103   0.0000       1.147886        31.2356 
 104   0.0000       1.162981        31.6463 
 105   0.0000       1.179000        32.0822 
 106   0.0000       1.207262        32.8513 
 107   0.0000       1.217624        33.1332 
 108   0.0000       1.221583        33.2410 
 109   0.0000       1.274023        34.6679 
 110   0.0000       1.289491        35.0888 
 111   0.0000       1.318319        35.8733 
 112   0.0000       1.361017        37.0351 
 113   0.0000       1.418522        38.5999 
 114   0.0000       1.435253        39.0552 
 115   0.0000       1.452006        39.5111 
 116   0.0000       1.465319        39.8734 
 117   0.0000       1.485195        40.4142 
 118   0.0000       1.613365        43.9019 
 119   0.0000       1.622410        44.1480 
 120   0.0000       1.633165        44.4407 
 121   0.0000       1.649871        44.8953 
 122   0.0000       1.679372        45.6980 
 123   0.0000       1.690786        46.0086 
 124   0.0000       1.696829        46.1731 
 125   0.0000       1.712060        46.5875 
 126   0.0000       1.729963        47.0747 
 127   0.0000       1.735947        47.2375 
 128   0.0000       1.747391        47.5489 
 129   0.0000       1.750628        47.6370 
 130   0.0000       1.763806        47.9956 
 131   0.0000       1.830176        49.8016 
 132   0.0000       1.854803        50.4717 
 133   0.0000       1.898623        51.6642 
 134   0.0000       1.904693        51.8293 
 135   0.0000       1.960845        53.3573 
 136   0.0000       1.973885        53.7121 
 137   0.0000       1.981142        53.9096 
 138   0.0000       2.011307        54.7305 
 139   0.0000       2.046502        55.6882 
 140   0.0000       2.061933        56.1081 
 141   0.0000       2.081986        56.6537 
 142   0.0000       2.111383        57.4536 
 143   0.0000       2.186754        59.5046 
 144   0.0000       2.210406        60.1482 
 145   0.0000       2.234317        60.7988 
 146   0.0000       2.240299        60.9616 
 147   0.0000       2.253758        61.3279 
 148   0.0000       2.278461        62.0001 
 149   0.0000       2.322641        63.2023 
 150   0.0000       2.330230        63.4088 
 151   0.0000       2.393369        65.1269 
 152   0.0000       2.403430        65.4007 
 153   0.0000       2.419460        65.8369 
 154   0.0000       2.512922        68.3801 
 155   0.0000       2.520936        68.5982 
 156   0.0000       2.546824        69.3026 
 157   0.0000       2.555761        69.5458 
 158   0.0000       2.580379        70.2157 
 159   0.0000       2.599923        70.7475 
 160   0.0000       2.605568        70.9011 
 161   0.0000       2.640661        71.8560 
 162   0.0000       2.661434        72.4213 
 163   0.0000       2.665844        72.5413 
 164   0.0000       2.695757        73.3553 
 165   0.0000       2.712929        73.8225 
 166   0.0000       2.796549        76.0980 
 167   0.0000       2.844342        77.3985 
 168   0.0000       2.870903        78.1212 
 169   0.0000       2.888684        78.6051 
 170   0.0000       2.962167        80.6047 
 171   0.0000       2.999864        81.6304 
 172   0.0000       3.008119        81.8551 
 173   0.0000       3.094872        84.2158 
 174   0.0000       3.233651        87.9921 
 175   0.0000       3.249740        88.4299 
 176   0.0000       3.336099        90.7799 
 177   0.0000       3.533261        96.1449 
 178   0.0000       3.723130       101.3115 
 179   0.0000       3.725905       101.3870 

                    ********************************
                    * MULLIKEN POPULATION ANALYSIS *
                    ********************************

-----------------------
MULLIKEN ATOMIC CHARGES
-----------------------
   0 C :   -0.054166
   1 C :   -0.048326
   2 C :    0.176068
   3 C :   -0.014566
   4 C :    0.024425
   5 C :    0.025547
   6 C :    0.081349
   7 H :    0.003435
   8 H :   -0.005791
   9 H :    0.018442
  10 H :    0.033696
  11 H :    0.038851
  12 H :   -0.008967
  13 H :    0.002020
  14 N :    0.230242
  15 O :   -0.252097
  16 O :   -0.250162
  17 H :    1.000000
Sum of atomic charges:    1.0000000

--------------------------------
MULLIKEN REDUCED ORBITAL CHARGES
--------------------------------
  0 C s       :     3.088541  s :     3.088541
      pz      :     0.959834  p :     2.922419
      px      :     0.966284
      py      :     0.996301
      dz2     :     0.006199  d :     0.043206
      dxz     :     0.006120
      dyz     :     0.008596
      dx2y2   :     0.010875
      dxy     :     0.011417
  1 C s       :     3.328657  s :     3.328657
      pz      :     0.889886  p :     2.686401
      px      :     0.871196
      py      :     0.925319
      dz2     :     0.003869  d :     0.033268
      dxz     :     0.005505
      dyz     :     0.006297
      dx2y2   :     0.009090
      dxy     :     0.008507
  2 C s       :     3.015275  s :     3.015275
      pz      :     0.989281  p :     2.760148
      px      :     0.889738
      py      :     0.881129
      dz2     :     0.006231  d :     0.048509
      dxz     :     0.007898
      dyz     :     0.009559
      dx2y2   :     0.012697
      dxy     :     0.012124
  3 C s       :     3.265519  s :     3.265519
      pz      :     0.964412  p :     2.714973
      px      :     0.925187
      py      :     0.825374
      dz2     :     0.006096  d :     0.034074
      dxz     :     0.005685
      dyz     :     0.005347
      dx2y2   :     0.007564
      dxy     :     0.009383
  4 C s       :     3.167233  s :     3.167233
      pz      :     0.933977  p :     2.773514
      px      :     0.922765
      py      :     0.916772
      dz2     :     0.003797  d :     0.034828
      dxz     :     0.005371
      dyz     :     0.006946
      dx2y2   :     0.008996
      dxy     :     0.009717
  5 C s       :     3.206546  s :     3.206546
      pz      :     0.941430  p :     2.733709
      px      :     0.872033
      py      :     0.920245
      dz2     :     0.004488  d :     0.034199
      dxz     :     0.004528
      dyz     :     0.007329
      dx2y2   :     0.008775
      dxy     :     0.009078
  6 C s       :     2.938370  s :     2.938370
      pz      :     1.007032  p :     2.952583
      px      :     0.995424
      py      :     0.950126
      dz2     :     0.007069  d :     0.027698
      dxz     :     0.003559
      dyz     :     0.004346
      dx2y2   :     0.006483
      dxy     :     0.006240
  7 H s       :     0.972949  s :     0.972949
      pz      :     0.004177  p :     0.023616
      px      :     0.005105
      py      :     0.014335
  8 H s       :     0.982139  s :     0.982139
      pz      :     0.008468  p :     0.023652
      px      :     0.008227
      py      :     0.006956
  9 H s       :     0.958436  s :     0.958436
      pz      :     0.006273  p :     0.023122
      px      :     0.012489
      py      :     0.004360
 10 H s       :     0.942731  s :     0.942731
      pz      :     0.013820  p :     0.023573
      px      :     0.005155
      py      :     0.004598
 11 H s       :     0.937466  s :     0.937466
      pz      :     0.006792  p :     0.023683
      px      :     0.008683
      py      :     0.008209
 12 H s       :     0.986309  s :     0.986309
      pz      :     0.006119  p :     0.022658
      px      :     0.011804
      py      :     0.004735
 13 H s       :     0.975097  s :     0.975097
      pz      :     0.008139  p :     0.022883
      px      :     0.007296
      py      :     0.007449
 14 N s       :     3.301409  s :     3.301409
      pz      :     1.143987  p :     3.353577
      px      :     1.151227
      py      :     1.058363
      dz2     :     0.016027  d :     0.114771
      dxz     :     0.011217
      dyz     :     0.027340
      dx2y2   :     0.030121
      dxy     :     0.030067
 15 O s       :     3.856188  s :     3.856188
      pz      :     1.551935  p :     4.373876
      px      :     1.679760
      py      :     1.142181
      dz2     :     0.002751  d :     0.022033
      dxz     :     0.000762
      dyz     :     0.005591
      dx2y2   :     0.007451
      dxy     :     0.005479
 16 O s       :     3.856439  s :     3.856439
      pz      :     1.333817  p :     4.371704
      px      :     1.519548
      py      :     1.518339
      dz2     :     0.004349  d :     0.022019
      dxz     :     0.004137
      dyz     :     0.005313
      dx2y2   :     0.002961
      dxy     :     0.005259
 17 H s       :     0.000000  s :     0.000000
      pz      :     0.000000  p :     0.000000
      px      :     0.000000
      py      :     0.000000


                     *******************************
                     * LOEWDIN POPULATION ANALYSIS *
                     *******************************

----------------------
LOEWDIN ATOMIC CHARGES
----------------------
   0 C :   -0.014510
   1 C :   -0.004696
   2 C :   -0.023987
   3 C :   -0.009468
   4 C :   -0.010759
   5 C :   -0.001405
   6 C :   -0.042068
   7 H :    0.039157
   8 H :    0.037245
   9 H :    0.032921
  10 H :    0.039303
  11 H :    0.041623
  12 H :    0.033394
  13 H :    0.036402
  14 N :    0.277439
  15 O :   -0.215507
  16 O :   -0.215084
  17 H :    1.000000

-------------------------------
LOEWDIN REDUCED ORBITAL CHARGES
-------------------------------
  0 C s       :     2.857657  s :     2.857657
      pz      :     0.986061  p :     3.050466
      px      :     1.030536
      py      :     1.033869
      dz2     :     0.013371  d :     0.106387
      dxz     :     0.016762
      dyz     :     0.019791
      dx2y2   :     0.027751
      dxy     :     0.028712
  1 C s       :     2.864233  s :     2.864233
      pz      :     0.989787  p :     3.052161
      px      :     1.026751
      py      :     1.035623
      dz2     :     0.009077  d :     0.088302
      dxz     :     0.013643
      dyz     :     0.015908
      dx2y2   :     0.024824
      dxy     :     0.024850
  2 C s       :     2.864569  s :     2.864569
      pz      :     1.026873  p :     3.036768
      px      :     0.937948
      py      :     1.071947
      dz2     :     0.013999  d :     0.122650
      dxz     :     0.019754
      dyz     :     0.023633
      dx2y2   :     0.033283
      dxy     :     0.031982
  3 C s       :     2.863677  s :     2.863677
      pz      :     0.986165  p :     3.056678
      px      :     1.030019
      py      :     1.040495
      dz2     :     0.013728  d :     0.089113
      dxz     :     0.015907
      dyz     :     0.013655
      dx2y2   :     0.020733
      dxy     :     0.025089
  4 C s       :     2.860752  s :     2.860752
      pz      :     0.987646  p :     3.059799
      px      :     1.024246
      py      :     1.047907
      dz2     :     0.008726  d :     0.090207
      dxz     :     0.013428
      dyz     :     0.016985
      dx2y2   :     0.024314
      dxy     :     0.026754
  5 C s       :     2.866344  s :     2.866344
      pz      :     0.983358  p :     3.046014
      px      :     1.014094
      py      :     1.048563
      dz2     :     0.010187  d :     0.089047
      dxz     :     0.011216
      dyz     :     0.019104
      dx2y2   :     0.024260
      dxy     :     0.024280
  6 C s       :     2.834114  s :     2.834114
      pz      :     1.065819  p :     3.136777
      px      :     1.060468
      py      :     1.010490
      dz2     :     0.018516  d :     0.071177
      dxz     :     0.008888
      dyz     :     0.010525
      dx2y2   :     0.017278
      dxy     :     0.015970
  7 H s       :     0.888851  s :     0.888851
      pz      :     0.013438  p :     0.071992
      px      :     0.016435
      py      :     0.042119
  8 H s       :     0.890482  s :     0.890482
      pz      :     0.025493  p :     0.072273
      px      :     0.025185
      py      :     0.021595
  9 H s       :     0.902843  s :     0.902843
      pz      :     0.016494  p :     0.064236
      px      :     0.035153
      py      :     0.012588
 10 H s       :     0.896153  s :     0.896153
      pz      :     0.039088  p :     0.064544
      px      :     0.012258
      py      :     0.013197
 11 H s       :     0.893925  s :     0.893925
      pz      :     0.016988  p :     0.064453
      px      :     0.023830
      py      :     0.023635
 12 H s       :     0.899579  s :     0.899579
      pz      :     0.018340  p :     0.067027
      px      :     0.034066
      py      :     0.014620
 13 H s       :     0.896634  s :     0.896634
      pz      :     0.023630  p :     0.066965
      px      :     0.021322
      py      :     0.022013
 14 N s       :     3.054450  s :     3.054450
      pz      :     1.133171  p :     3.427445
      px      :     1.164917
      py      :     1.129358
      dz2     :     0.030223  d :     0.240666
      dxz     :     0.023325
      dyz     :     0.057586
      dx2y2   :     0.066445
      dxy     :     0.063087
 15 O s       :     3.619920  s :     3.619920
      pz      :     1.560339  p :     4.553250
      px      :     1.690530
      py      :     1.302380
      dz2     :     0.006195  d :     0.042337
      dxz     :     0.001059
      dyz     :     0.008859
      dx2y2   :     0.016009
      dxy     :     0.010215
 16 O s       :     3.620402  s :     3.620402
      pz      :     1.397934  p :     4.552381
      px      :     1.571331
      py      :     1.583115
      dz2     :     0.006004  d :     0.042302
      dxz     :     0.009063
      dyz     :     0.011601
      dx2y2   :     0.004723
      dxy     :     0.010910
 17 H s       :     0.000000  s :     0.000000
      pz      :     0.000000  p :     0.000000
      px      :     0.000000
      py      :     0.000000


                      *****************************
                      * MAYER POPULATION ANALYSIS *
                      *****************************

  NA   - Mulliken gross atomic population
  ZA   - Total nuclear charge
  QA   - Mulliken gross atomic charge
  VA   - Mayer's total valence
  BVA  - Mayer's bonded valence
  FA   - Mayer's free valence

  ATOM       NA         ZA         QA         VA         BVA        FA
  0 C      6.0542     6.0000    -0.0542     3.9510     3.9510    -0.0000
  1 C      6.0483     6.0000    -0.0483     3.8202     3.8202     0.0000
  2 C      5.8239     6.0000     0.1761     3.7905     3.7905    -0.0000
  3 C      6.0146     6.0000    -0.0146     3.8254     3.8254    -0.0000
  4 C      5.9756     6.0000     0.0244     3.8109     3.8109    -0.0000
  5 C      5.9745     6.0000     0.0255     3.8380     3.8380     0.0000
  6 C      5.9187     6.0000     0.0813     3.9097     3.9097    -0.0000
  7 H      0.9966     1.0000     0.0034     1.0166     1.0166     0.0000
  8 H      1.0058     1.0000    -0.0058     1.0262     1.0262     0.0000
  9 H      0.9816     1.0000     0.0184     0.9974     0.9974    -0.0000
 10 H      0.9663     1.0000     0.0337     0.9904     0.9904    -0.0000
 11 H      0.9611     1.0000     0.0389     0.9892     0.9892    -0.0000
 12 H      1.0090     1.0000    -0.0090     0.9880     0.9880    -0.0000
 13 H      0.9980     1.0000     0.0020     0.9809     0.9809    -0.0000
 14 N      6.7698     7.0000     0.2302     3.9741     3.9741     0.0000
 15 O      8.2521     8.0000    -0.2521     1.9536     1.9536     0.0000
 16 O      8.2502     8.0000    -0.2502     1.9560     1.9560     0.0000
 17 H      0.0000     1.0000     1.0000     0.0000     0.0000     0.0000

  Mayer bond orders larger than 0.100000
B(  0-C ,  1-C ) :   1.3365 B(  0-C ,  5-C ) :   1.3929 B(  0-C ,  6-C ) :   1.0599 
B(  1-C ,  2-C ) :   1.3656 B(  1-C ,  8-H ) :   0.9897 B(  2-C ,  3-C ) :   1.3735 
B(  2-C , 14-N ) :   0.8576 B(  3-C ,  4-C ) :   1.3535 B(  3-C ,  7-H ) :   0.9842 
B(  4-C ,  5-C ) :   1.3666 B(  4-C , 13-H ) :   0.9812 B(  5-C , 12-H ) :   0.9855 
B(  6-C ,  9-H ) :   0.9590 B(  6-C , 10-H ) :   0.9550 B(  6-C , 11-H ) :   0.9528 
B( 14-N , 15-O ) :   1.5447 B( 14-N , 16-O ) :   1.5450 B( 15-O , 16-O ) :   0.2758 


-------
TIMINGS
-------

Total SCF time: 0 days 0 hours 3 min 19 sec 

Total time                  ....     199.889 sec
Sum of individual times     ....     198.991 sec  ( 99.6%)

Fock matrix formation       ....     191.317 sec  ( 95.7%)
  Split-RI-J                ....      19.575 sec  ( 10.2% of F)
  Chain of spheres X        ....     139.545 sec  ( 72.9% of F)
  XC integration            ....      31.793 sec  ( 16.6% of F)
    Basis function eval.    ....      12.042 sec  ( 37.9% of XC)
    Density eval.           ....       8.916 sec  ( 28.0% of XC)
    XC-Functional eval.     ....       2.494 sec  (  7.8% of XC)
    XC-Potential eval.      ....       6.575 sec  ( 20.7% of XC)
Diagonalization             ....       0.224 sec  (  0.1%)
Density matrix formation    ....       0.024 sec  (  0.0%)
Population analysis         ....       0.031 sec  (  0.0%)
Initial guess               ....       0.933 sec  (  0.5%)
Orbital Transformation      ....       0.000 sec  (  0.0%)
Orbital Orthonormalization  ....       0.000 sec  (  0.0%)
DIIS solution               ....       0.259 sec  (  0.1%)
SOSCF solution              ....       0.100 sec  (  0.1%)
Grid generation             ....       6.103 sec  (  3.1%)

Maximum memory used throughout the entire SCF-calculation: 74.8 MB


-------------------------------------------------------------------------------
                          DFT DISPERSION CORRECTION                            
                                                                               
                                 DFTD4 V2.5                                    
-------------------------------------------------------------------------------
The B3LYP functional is recognized
Active option DFTDOPT                   ...         5   

Starting D4
-------------------------   ----------------
Dispersion correction           -0.026459925
-------------------------   ----------------


-------------------------   --------------------
FINAL SINGLE POINT ENERGY      -475.486139449682
-------------------------   --------------------

------------------------------------------------------------------------------
                         ORCA SCF GRADIENT CALCULATION
------------------------------------------------------------------------------

 ... reading COSX grid (gridx3)
Gradient of the Kohn-Sham DFT energy:
Kohn-Sham wavefunction type      ... RKS
Hartree-Fock exchange scaling    ...    0.200
Number of operators              ...    1
Number of atoms                  ...   18
Basis set dimensions             ...  180
Integral neglect threshold       ... 2.5e-11
Integral primitive cutoff        ... 2.5e-12
SHARK Integral package           ... ON

Nuc. rep. gradient       (SHARK) ... done (  0.0 sec)
HCore & Overlap gradient (SHARK) ... done (  0.6 sec)
RI-J gradient            (SHARK) ... done (  3.3 sec)
COSX-gradient                    ... done ( 33.3 sec)
Exchange-correlation gradient    ... done
Dispersion correction            ... Starting D4


------------------- 
Dispersion Gradient 
------------------- 
   1  :    0.000260423    0.000414125   -0.000019330
   2  :   -0.000097576    0.000264450    0.000166419
   3  :   -0.000288531   -0.000238857    0.000104868
   4  :    0.000125915   -0.000443989   -0.000248063
   5  :    0.000382382   -0.000342517   -0.000382416
   6  :    0.000400091   -0.000021882   -0.000273312
   7  :    0.000196049    0.000609051    0.000091877
   8  :   -0.000016483   -0.000198552   -0.000062634
   9  :   -0.000136464    0.000127756    0.000139835
  10  :    0.000068745    0.000140553    0.000012240
  11  :    0.000056560    0.000149251    0.000065220
  12  :    0.000016569    0.000174625   -0.000004279
  13  :    0.000172612    0.000016401   -0.000108551
  14  :    0.000102886   -0.000107784   -0.000108861
  15  :   -0.000493088   -0.000220955    0.000246752
  16  :   -0.000337890   -0.000338392    0.000102038
  17  :   -0.000412919    0.000016332    0.000278517
  18  :    0.000000719    0.000000383   -0.000000319

  |G| =    0.001330242

done

------------------
CARTESIAN GRADIENT
------------------

   1   C   :   -0.000348929   -0.000015643    0.000276439
   2   C   :   -0.000174846    0.000471179    0.000166410
   3   C   :    0.000197164   -0.000019959   -0.000000741
   4   C   :    0.000072166   -0.000250243    0.000087173
   5   C   :    0.000145590   -0.000160690   -0.000254668
   6   C   :   -0.000091625   -0.000153617    0.000020197
   7   C   :    0.000168611    0.000206652    0.000206223
   8   H   :    0.000121557    0.000304611   -0.000027156
   9   H   :    0.000272855   -0.000436765   -0.000268412
  10   H   :   -0.000035681   -0.000064270   -0.000046815
  11   H   :    0.000096688   -0.000114315   -0.000130424
  12   H   :    0.000012091    0.000063932   -0.000158536
  13   H   :    0.000178560   -0.000009309   -0.000084166
  14   H   :   -0.000081107    0.000222616    0.000153092
  15   N   :    0.000833089   -0.000230792   -0.000794717
  16   O   :   -0.000133989   -0.000142734    0.000099091
  17   O   :   -0.000730861    0.000552045    0.000611735
  18   H   :   -0.000451160   -0.000209198    0.000184749

Difference to translation invariance:
           :    0.0000501739    0.0000135007    0.0000394738

Difference to rotation invariance:
           :   -0.0000957434   -0.0004940037   -0.0009427978

Norm of the cartesian gradient     ...    0.0021008331
RMS gradient                       ...    0.0002858872
MAX gradient                       ...    0.0008330895

-------
TIMINGS
-------

Total SCF gradient time            ...       59.096 sec

One electron gradient       ....       0.633 sec  (  1.1%)
RI-J Coulomb gradient       ....       3.317 sec  (  5.6%)
COSX gradient               ....      33.299 sec  ( 56.3%)
XC gradient                 ....      20.861 sec  ( 35.3%)

Maximum memory used throughout the entire SCFGRAD-calculation: 60.1 MB
------------------------------------------------------------------------------
                         ORCA GEOMETRY RELAXATION STEP
------------------------------------------------------------------------------

Reading the OPT-File                    .... done
Getting information on internals        .... done
Copying old internal coords+grads       .... done
Making the new internal coordinates     .... (new redundants).... done
Validating the new internal coordinates .... (new redundants).... done
Calculating the B-matrix                .... done
Calculating the G,G- and P matrices     .... done
Transforming gradient to internals      .... done
Projecting the internal gradient        .... done
Number of atoms                         ....  18
Number of internal coordinates          .... 100
Current Energy                          ....  -475.486139450 Eh
Current gradient norm                   ....     0.002100833 Eh/bohr
Maximum allowed component of the step   ....  0.300
Current trust radius                    ....  0.300
Evaluating the initial hessian          ....  (Almloef) done
Projecting the Hessian                  .... done
Forming the augmented Hessian           .... done
Diagonalizing the augmented Hessian     .... done
Last element of RFO vector              ....  0.718531931
Lowest eigenvalues of augmented Hessian:
 -0.000306613  0.000309895  0.007819475  0.012163799  0.017133022
Length of the computed step             ....  0.967937459
Warning: the length of the step is outside the trust region - taking restricted step instead
The input lambda is                     ....    -0.000307
   iter:   1  x=   -0.000451  g= 5885.165294 f(x)=     0.846903
   iter:   2  x=   -0.000635  g= 1922.323121 f(x)=     0.354445
   iter:   3  x=   -0.000830  g=  702.249620 f(x)=     0.137192
   iter:   4  x=   -0.000969  g=  318.093833 f(x)=     0.044053
   iter:   5  x=   -0.001013  g=  201.453479 f(x)=     0.008894
   iter:   6  x=   -0.001016  g=  176.522068 f(x)=     0.000567
   iter:   7  x=   -0.001016  g=  174.873938 f(x)=     0.000003
   iter:   8  x=   -0.001016  g=  174.866201 f(x)=     0.000000
   iter:   9  x=   -0.001016  g=  174.866201 f(x)=     0.000000
The output lambda is                    ....    -0.001016 (9 iterations)
The final length of the internal step   ....  0.300000000
Converting the step to cartesian space:
 Initial RMS(Int)=    0.0300000000
Transforming coordinates:
 Iter   0:  RMS(Cart)=    0.0236891331 RMS(Int)=    0.0299965685
 Iter   1:  RMS(Cart)=    0.0000132417 RMS(Int)=    0.0000065961
 Iter   2:  RMS(Cart)=    0.0000000452 RMS(Int)=    0.0000000309
done
Storing new coordinates                 .... done

                                .--------------------.
          ----------------------|Geometry convergence|-------------------------
          Item                value                   Tolerance       Converged
          ---------------------------------------------------------------------
          RMS gradient        0.0001769896            0.0000300000      NO
          MAX gradient        0.0010782602            0.0001000000      NO
          RMS step            0.0300000000            0.0006000000      NO
          MAX step            0.1746225101            0.0010000000      NO
          ........................................................
          Max(Bonds)      0.0924      Max(Angles)    0.14
          Max(Dihed)        0.28      Max(Improp)    0.00
          ---------------------------------------------------------------------

The optimization has not yet converged - more geometry cycles are needed


    ---------------------------------------------------------------------------
                         Redundant Internal Coordinates
                            (Angstroem and degrees)

        Definition                    Value    dE/dq     Step     New-Value
    ----------------------------------------------------------------------------
     1. B(C   1,C   0)                1.4017  0.000048 -0.0000    1.4016   
     2. B(C   2,C   1)                1.3935  0.000158 -0.0001    1.3934   
     3. B(C   3,C   2)                1.3959  0.000147 -0.0001    1.3957   
     4. B(C   4,C   3)                1.3932 -0.000032  0.0000    1.3932   
     5. B(C   5,C   4)                1.3990 -0.000198  0.0002    1.3992   
     6. B(C   5,C   0)                1.4043  0.000127 -0.0001    1.4042   
     7. B(C   6,C   0)                1.5080  0.000130 -0.0002    1.5078   
     8. B(H   7,C   3)                1.0887 -0.000319  0.0005    1.0891   
     9. B(H   8,C   1)                1.0896 -0.000562  0.0008    1.0904   
    10. B(H   9,C   6)                1.0994 -0.000030  0.0000    1.0995   
    11. B(H  10,C   6)                1.1016 -0.000147  0.0002    1.1019   
    12. B(H  11,C   6)                1.1032  0.000101 -0.0002    1.1030   
    13. B(H  12,C   5)                1.0936  0.000181 -0.0003    1.0933   
    14. B(H  13,C   4)                1.0920 -0.000266  0.0004    1.0924   
    15. B(N  14,C   2)                1.4761  0.000463 -0.0006    1.4755   
    16. B(O  15,N  14)                1.2222  0.000185 -0.0001    1.2220   
    17. B(O  16,N  14)                1.2227  0.001078 -0.0007    1.2220   
    18. B(H  17,O  16)                9.0612  0.000022 -0.0915    8.9696   
    19. B(H  17,O  15)                8.8972  0.000056 -0.0908    8.8064   
    20. B(H  17,N  14)                9.4831  0.000454 -0.0924    9.3907   
    21. A(C   1,C   0,C   6)          120.48  0.000473   -0.07    120.41   
    22. A(C   5,C   0,C   6)          121.39 -0.000460    0.07    121.45   
    23. A(C   1,C   0,C   5)          118.14 -0.000013    0.00    118.14   
    24. A(C   0,C   1,C   2)          119.63 -0.000032    0.00    119.63   
    25. A(C   2,C   1,H   8)          118.88 -0.000124    0.02    118.90   
[...]
    61. D(N  14,C   2,C   1,H   8)      0.46  0.000110   -0.07      0.38   
    62. D(N  14,C   2,C   1,C   0)   -179.89 -0.000003   -0.00   -179.89   
    63. D(H   7,C   3,C   2,N  14)      0.15  0.000076   -0.09      0.06   
    64. D(C   4,C   3,C   2,N  14)    179.92 -0.000060   -0.01    179.92   
    65. D(H   7,C   3,C   2,C   1)   -179.93  0.000068   -0.05   -179.98   
    66. D(C   4,C   3,C   2,C   1)     -0.16 -0.000068    0.03     -0.12   
    67. D(C   5,C   4,C   3,H   7)    179.85 -0.000060    0.07    179.92   
    68. D(H  13,C   4,C   3,C   2)    179.90  0.000047    0.01    179.91   
    69. D(C   5,C   4,C   3,C   2)      0.08  0.000079   -0.01      0.07   
    70. D(H  13,C   4,C   3,H   7)     -0.34 -0.000092    0.10     -0.24   
    71. D(H  12,C   5,C   4,H  13)     -0.03 -0.000030   -0.00     -0.03   
    72. D(C   0,C   5,C   4,C   3)     -0.05 -0.000030    0.00     -0.05   
    73. D(H  12,C   5,C   4,C   3)    179.78 -0.000062    0.02    179.80   
    74. D(H  12,C   5,C   0,C   6)      0.70 -0.000015   -0.04      0.66   
    75. D(C   0,C   5,C   4,H  13)   -179.86  0.000002   -0.02   -179.89   
    76. D(H  12,C   5,C   0,C   1)   -179.75  0.000000   -0.03   -179.78   
    77. D(C   4,C   5,C   0,C   6)   -179.46 -0.000047   -0.02   -179.48   
    78. D(C   4,C   5,C   0,C   1)      0.09 -0.000032   -0.01      0.07   
    79. D(H  11,C   6,C   0,C   5)    109.62 -0.000088   -0.18    109.44   
    80. D(H  11,C   6,C   0,C   1)    -69.92 -0.000100   -0.19    -70.11   
    81. D(H  10,C   6,C   0,C   5)   -131.09  0.000103   -0.00   -131.10   
    82. D(H  10,C   6,C   0,C   1)     49.37  0.000091   -0.01     49.36   
    83. D(H   9,C   6,C   0,C   5)    -10.31  0.000044   -0.08    -10.39   
    84. D(H   9,C   6,C   0,C   1)    170.15  0.000032   -0.09    170.07   
    85. D(O  15,N  14,C   2,C   1)    178.51 -0.000032    0.78    179.29   
    86. D(O  16,N  14,C   2,C   3)    178.38 -0.000155    0.88    179.27   
    87. D(O  16,N  14,C   2,C   1)     -1.54 -0.000146    0.85     -0.69   
    88. D(O  15,N  14,C   2,C   3)     -1.57 -0.000041    0.82     -0.75   
    89. D(H  17,O  15,N  14,O  16)      6.37  0.000089    0.07      6.44   
    90. D(H  17,O  15,N  14,C   2)   -173.68 -0.000032    0.14   -173.55   
    91. D(H  17,O  16,N  14,O  15)     -6.07 -0.000073   -0.07     -6.14   
    92. D(H  17,O  16,N  14,C   2)    173.99  0.000048   -0.14    173.85   
    93. D(O  15,H  17,O  16,N  14)      2.89  0.000033    0.04      2.92   
    94. D(O  16,H  17,O  15,N  14)     -2.99 -0.000090   -0.03     -3.03   
    95. D(O  16,H  17,N  14,O  15)    174.17 -0.000121   -0.07    174.11   
    96. D(O  15,H  17,N  14,O  16)   -174.17  0.000121    0.07   -174.11   
    97. D(O  16,H  17,C   2,C   3)    172.80 -0.000002    0.73    173.54   
    98. D(O  16,H  17,C   2,C   1)    -12.28 -0.000011    0.63    -11.65   
    99. D(O  15,H  17,C   2,C   3)     10.40 -0.000010    1.01     11.42   
   100. D(O  15,H  17,C   2,C   1)   -174.68 -0.000019    0.91   -173.77   
    ----------------------------------------------------------------------------

         *************************************************************
         *                GEOMETRY OPTIMIZATION CYCLE  13            *
         *************************************************************
---------------------------------
CARTESIAN COORDINATES (ANGSTROEM)
---------------------------------
  C     -3.015723    2.733730   -1.184166
  C     -4.154722    2.199654   -0.566472
  C     -4.511085    0.873878   -0.808065
  C     -3.772231    0.038902   -1.648167
  C     -2.639671    0.569578   -2.261817
  C     -2.268511    1.898198   -2.031089
  C     -2.613696    4.168642   -0.950813
  H     -4.091178   -0.989703   -1.805713
  H     -4.770178    2.796166    0.105363
  H     -1.614941    4.376101   -1.360808
  H     -2.600043    4.410012    0.123423
  H     -3.323186    4.861785   -1.434518
  H     -1.374264    2.295933   -2.519395
  H     -2.037084   -0.055061   -2.924009
  N     -5.715070    0.332984   -0.149450
  O     -6.021147   -0.827412   -0.382337
  O     -6.345163    1.072697    0.595266
  H    -12.914358   -2.832084    2.764228

----------------------------
CARTESIAN COORDINATES (A.U.)
----------------------------
  NO LB      ZA    FRAG     MASS         X           Y           Z
   0 C     6.0000    0    12.011   -5.698890    5.166001   -2.237750
   1 C     6.0000    0    12.011   -7.851286    4.156744   -1.070477
   2 C     6.0000    0    12.011   -8.524715    1.651391   -1.527022
   3 C     6.0000    0    12.011   -7.128484    0.073513   -3.114585
   4 C     6.0000    0    12.011   -4.988256    1.076347   -4.274215
   5 C     6.0000    0    12.011   -4.286864    3.587073   -3.838202
   6 C     6.0000    0    12.011   -4.939170    7.877592   -1.796777
   7 H     1.0000    0     1.008   -7.731206   -1.870268   -3.412303
   8 H     1.0000    0     1.008   -9.014331    5.283987    0.199108
   9 H     1.0000    0     1.008   -3.051795    8.269633   -2.571554
  10 H     1.0000    0     1.008   -4.913369    8.333715    0.233235
  11 H     1.0000    0     1.008   -6.279911    9.187443   -2.710847
  12 H     1.0000    0     1.008   -2.596983    4.338684   -4.760966
  13 H     1.0000    0     1.008   -3.849531   -0.104050   -5.525577
  14 N     7.0000    0    14.007  -10.799918    0.629249   -0.282419
  15 O     8.0000    0    15.999  -11.378318   -1.563582   -0.722512
  16 O     8.0000    0    15.999  -11.990620    2.027104    1.124889
  17 H     1.0000    0     1.008  -24.404600   -5.351863    5.223634

--------------------------------
INTERNAL COORDINATES (ANGSTROEM)
--------------------------------
 C      0   0   0     0.000000000000     0.00000000     0.00000000
 C      1   0   0     1.401464536026     0.00000000     0.00000000
 C      2   1   0     1.393930875801   119.59306512     0.00000000
 C      3   2   1     1.396016816947   122.53826327     0.15051015
 C      4   3   2     1.393153205643   117.87205096   359.87706748
 C      5   4   3     1.398650960658   120.32564732     0.07074803
 C      1   2   3     1.508326982789   120.72833993   179.43694860
 H      4   3   2     1.088382136715   119.81991187   180.02029601
 H      2   1   3     1.089025074978   121.49814515   179.71786520
 H      7   1   2     1.099385384112   111.34389589   170.06563472
 H      7   1   2     1.101103875618   111.27089461    49.35737625
 H      7   1   2     1.103536648649   110.99966330   289.89379503
 H      6   5   4     1.093760579249   119.25832695   179.80499800
 H      5   4   3     1.091688959490   119.86497221   179.90616138
 N      3   2   1     1.475100418547   118.68772499   180.11006511
 O     15   3   2     1.222472596073   117.86320082   179.28812530
 O     15   3   2     1.224251959520   118.04243213   359.29798670
 H     16  15   3     7.838108504163   112.73608367   186.45254760

---------------------------
INTERNAL COORDINATES (A.U.)
---------------------------
 C      0   0   0     0.000000000000     0.00000000     0.00000000
 C      1   0   0     2.648384159492     0.00000000     0.00000000
 C      2   1   0     2.634147604881   119.59306512     0.00000000
 C      3   2   1     2.638089462378   122.53826327     0.15051015
 C      4   3   2     2.632678021259   117.87205096   359.87706748
 C      5   4   3     2.643067272589   120.32564732     0.07074803
 C      1   2   3     2.850324917875   120.72833993   179.43694860
 H      4   3   2     2.056744167443   119.81991187   180.02029601
 H      2   1   3     2.057959144682   121.49814515   179.71786520
 H      7   1   2     2.077537291607   111.34389589   170.06563472
 H      7   1   2     2.080784769918   111.27089461    49.35737625
 H      7   1   2     2.085382044691   110.99966330   289.89379503
 H      6   5   4     2.066907950859   119.25832695   179.80499800
 H      5   4   3     2.062993156861   119.86497221   179.90616138
 N      3   2   1     2.787535811087   118.68772499   180.11006511
 O     15   3   2     2.310138412802   117.86320082   179.28812530
 O     15   3   2     2.313500922410   118.04243213   359.29798670
 H     16  15   3    14.811878480828   112.73608367   186.45254760

------------------------------------------------------------------------------
                   ___                                                        
                  /   \      - P O W E R E D   B Y -                         
                 /     \                                                     
                 |  |  |   _    _      __       _____    __    __             
                 |  |  |  | |  | |    /  \     |  _  \  |  |  /  |          
                  \  \/   | |  | |   /    \    | | | |  |  | /  /          
                 / \  \   | |__| |  /  /\  \   | |_| |  |  |/  /          
                |  |  |   |  __  | /  /__\  \  |    /   |      \           
                |  |  |   | |  | | |   __   |  |    \   |  |\   \          
                \     /   | |  | | |  |  |  |  | |\  \  |  | \   \       
                 \___/    |_|  |_| |__|  |__|  |_| \__\ |__|  \__/        
                                                                              
                      - O R C A' S   B I G   F R I E N D -                    
                                      &                                       
                       - I N T E G R A L  F E E D E R -                       
                                                                              
 v1 FN, 2020, v2 2021                                                         
------------------------------------------------------------------------------


Reading SHARK input file meta_products_optfreq_9.SHARKINP.tmp ... ok
----------------------
SHARK INTEGRAL PACKAGE
----------------------

Number of atoms                             ...     18
Number of basis functions                   ...    180
Number of shells                            ...     84
Maximum angular momentum                    ...      2
Integral batch strategy                     ... SHARK/LIBINT Hybrid
RI-J (if used) integral strategy            ... SPLIT-RIJ (Revised 2003 algorithm where possible)
Printlevel                                  ...      1
Contraction scheme used                     ... SEGMENTED contraction
Coulomb Range Separation                    ... NOT USED
Exchange Range Separation                   ... NOT USED
Finite Nucleus Model                        ... NOT USED
Auxiliary Coulomb fitting basis             ... AVAILABLE
   # of basis functions in Aux-J            ...    578
   # of shells in Aux-J                     ...    190
   Maximum angular momentum in Aux-J        ...      4
Auxiliary J/K fitting basis                 ... NOT available
Auxiliary Correlation fitting basis         ... NOT available
Auxiliary 'external' fitting basis          ... NOT available
Integral threshold                          ...     2.500000e-11
Primitive cut-off                           ...     2.500000e-12
Primitive pair pre-selection threshold      ...     2.500000e-12

Calculating pre-screening integrals         ... done (  0.1 sec) Dimension = 84
Organizing shell pair data                  ... done (  0.1 sec)
Shell pair information
Total number of shell pairs                 ...      3570
Shell pairs after pre-screening             ...      3035
Total number of primitive shell pairs       ...     13034
Primitive shell pairs kept                  ...      7973
          la=0 lb=0:    912 shell pairs
          la=1 lb=0:   1097 shell pairs
          la=1 lb=1:    351 shell pairs
          la=2 lb=0:    388 shell pairs
          la=2 lb=1:    239 shell pairs
          la=2 lb=2:     48 shell pairs

Calculating one electron integrals          ... done (  0.1 sec)
Calculating RI/J V-Matrix + Cholesky decomp.... done (  0.1 sec)
Calculating Nuclear repulsion               ... done (  0.0 sec) ENN=    497.611958747692 Eh

SHARK setup successfully completed in   0.8 seconds

Maximum memory used throughout the entire GTOINT-calculation: 24.6 MB

Diagonalization of the overlap matrix:
Smallest eigenvalue                        ... 2.764e-04
Time for diagonalization                   ...    0.013 sec
Threshold for overlap eigenvalues          ... 1.000e-08
Number of eigenvalues below threshold      ... 0
Time for construction of square roots      ...    0.025 sec
Total time needed                          ...    0.040 sec

-------------------
DFT GRID GENERATION
-------------------

General Integration Accuracy     IntAcc      ... 4.388
Radial Grid Type                 RadialGrid  ... OptM3 with GC (2021)
Angular Grid (max. ang.)         AngularGrid ... 4 (Lebedev-302)
Angular grid pruning method      GridPruning ... 4 (adaptive)
Weight generation scheme         WeightScheme... Becke
Basis function cutoff            BFCut       ... 1.0000e-11
Integration weight cutoff        WCut        ... 1.0000e-14
Angular grids for H and He will be reduced by one unit
Partially contracted basis set               ... off
Rotationally invariant grid construction     ... off

Total number of grid points                  ...    86196
Total number of batches                      ...     1356
Average number of points per batch           ...       63
Average number of grid points per atom       ...     4789
Time for grid setup =    2.979 sec

--------------------
COSX GRID GENERATION
--------------------

GRIDX 1
-------
General Integration Accuracy     IntAcc      ... 3.816
Radial Grid Type                 RadialGrid  ... OptM3 with GC (2021)
Angular Grid (max. ang.)         AngularGrid ... 1 (Lebedev-50)
Angular grid pruning method      GridPruning ... 4 (adaptive)
Weight generation scheme         WeightScheme... Becke
Basis function cutoff            BFCut       ... 1.0000e-11
Integration weight cutoff        WCut        ... 1.0000e-14
Angular grids for H and He will be reduced by one unit
Partially contracted basis set               ... on
Rotationally invariant grid construction     ... off

Total number of grid points                  ...    10965
Total number of batches                      ...      177
Average number of points per batch           ...       61
Average number of grid points per atom       ...      609
UseSFitting                                  ... on

GRIDX 2
-------
General Integration Accuracy     IntAcc      ... 4.020
Radial Grid Type                 RadialGrid  ... OptM3 with GC (2021)
Angular Grid (max. ang.)         AngularGrid ... 2 (Lebedev-110)
Angular grid pruning method      GridPruning ... 4 (adaptive)
Weight generation scheme         WeightScheme... Becke
Basis function cutoff            BFCut       ... 1.0000e-11
Integration weight cutoff        WCut        ... 1.0000e-14
Angular grids for H and He will be reduced by one unit
Partially contracted basis set               ... on
Rotationally invariant grid construction     ... off

Total number of grid points                  ...    24145
Total number of batches                      ...      387
Average number of points per batch           ...       62
Average number of grid points per atom       ...     1341
UseSFitting                                  ... on

GRIDX 3
-------
General Integration Accuracy     IntAcc      ... 4.338
Radial Grid Type                 RadialGrid  ... OptM3 with GC (2021)
Angular Grid (max. ang.)         AngularGrid ... 3 (Lebedev-194)
Angular grid pruning method      GridPruning ... 4 (adaptive)
Weight generation scheme         WeightScheme... Becke
Basis function cutoff            BFCut       ... 1.0000e-11
Integration weight cutoff        WCut        ... 1.0000e-14
Angular grids for H and He will be reduced by one unit
Partially contracted basis set               ... on
Rotationally invariant grid construction     ... off

Total number of grid points                  ...    53237
Total number of batches                      ...      841
Average number of points per batch           ...       63
Average number of grid points per atom       ...     2958
UseSFitting                                  ... on

Time for X-Grid setup             =    3.408 sec

--------------
SCF ITERATIONS
--------------
ITER       Energy         Delta-E        Max-DP      RMS-DP      [F,P]     Damp
               ***  Starting incremental Fock matrix formation  ***
                      *** Initiating the SOSCF procedure ***
                      *** Re-Reading the Fockian *** 
                      *** Removing any level shift *** 
ITER      Energy       Delta-E        Grad      Rot      Max-DP    RMS-DP
  0   -475.46069619 -475.4606961919  0.002803  0.002803  0.005090  0.000139
               *** Restarting incremental Fock matrix formation ***
  1   -475.46092254  -0.0002263459  0.000934  0.002195  0.002024  0.000064
  2   -475.46094963  -0.0000270922  0.000207  0.000846  0.000408  0.000015
  3   -475.46094998  -0.0000003473  0.000145  0.000277  0.000318  0.000009
  4   -475.46095035  -0.0000003735  0.000121  0.000354  0.000249  0.000006
  5   -475.46095045  -0.0000000962  0.000126  0.000760  0.000272  0.000007
  6   -475.46095070  -0.0000002548  0.000094  0.004789  0.001716  0.000033
  7   -475.46095461  -0.0000039087  0.000462  0.005803  0.002088  0.000040
  8   -475.46095042   0.0000041897  0.000085  0.000279  0.000262  0.000010
  9   -475.46095008   0.0000003458  0.000160  0.000153  0.000179  0.000006
 10   -475.46095051  -0.0000004377  0.000013  0.000085  0.000050  0.000001
 11   -475.46095051   0.0000000014  0.000019  0.000016  0.000030  0.000001
 12   -475.46095051  -0.0000000016  0.000003  0.000059  0.000020  0.000000
 13   -475.46095051   0.0000000036  0.000006  0.000047  0.000018  0.000000
 14   -475.46095051   0.0000000036  0.000008  0.000612  0.000219  0.000004
 15   -475.46095055  -0.0000000471  0.000038  0.000566  0.000203  0.000004
 16   -475.46095051   0.0000000466  0.000012  0.000141  0.000053  0.000002
 17   -475.46095050   0.0000000023  0.000010  0.000030  0.000014  0.000001
 18   -475.46095051  -0.0000000070  0.000003  0.000082  0.000031  0.000001
 19   -475.46095051  -0.0000000003  0.000006  0.010439  0.003901  0.000090

 WARNING: the maximum gradient error descreased on average only by a factor   0.8
          during the last 20 iterations

                      *** Initiating the TRAH-SCF procedure ***

              ***Rediagonalizing the Fockian in SOSCF/NRSCF***

TRAH GRIDX
----------

General Integration Accuracy     IntAcc      ... 3.067
Radial Grid Type                 RadialGrid  ... OptM3 with GC (2021)
Angular Grid (max. ang.)         AngularGrid ... 1 (Lebedev-50)
Angular grid pruning method      GridPruning ... 4 (adaptive)
Weight generation scheme         WeightScheme... Becke
Basis function cutoff            BFCut       ... 1.0000e-11
Integration weight cutoff        WCut        ... 1.0000e-14
Angular grids for H and He will be reduced by one unit
Partially contracted basis set               ... on
Rotationally invariant grid construction     ... off

Total number of grid points                  ...     5787
Total number of batches                      ...      102
Average number of points per batch           ...       56
Average number of grid points per atom       ...      322
[file orca_tools/qcmat1.cpp, line 1677]: Unable to open file meta_products_optfreq_9.SINV.gridx_trah.tmp in TMatrix<T>::Store(const char *fname)!


ORCA finished by error termination in SCF
Calling Command: orca_scf meta_products_optfreq_9.gbw b 
[file orca_tools/qcmsg.cpp, line 465]: 
  .... aborting the run

