
                                 *****************
                                 * O   R   C   A *
                                 *****************

                                            #,                                       
                                            ###                                      
                                            ####                                     
                                            #####                                    
                                            ######                                   
                                           ########,                                 
                                     ,,################,,,,,                         
                               ,,#################################,,                 
                          ,,##########################################,,             
                       ,#########################################, ''#####,          
                    ,#############################################,,   '####,        
                  ,##################################################,,,,####,       
                ,###########''''           ''''###############################       
              ,#####''   ,,,,##########,,,,          '''####'''          '####       
            ,##' ,,,,###########################,,,                        '##       
           ' ,,###''''                  '''############,,,                           
         ,,##''                                '''############,,,,        ,,,,,,###''
      ,#''                                            '''#######################'''  
     '                                                          ''''####''''         
             ,#######,   #######,   ,#######,      ##                                
            ,#'     '#,  ##    ##  ,#'     '#,    #''#        ######   ,####,        
            ##       ##  ##   ,#'  ##            #'  '#       #        #'  '#        
            ##       ##  #######   ##           ,######,      #####,   #    #        
            '#,     ,#'  ##    ##  '#,     ,#' ,#      #,         ##   #,  ,#        
             '#######'   ##     ##  '#######'  #'      '#     #####' # '####'        



                  #######################################################
                  #                        -***-                        #
                  #          Department of theory and spectroscopy      #
                  #    Directorship and core code : Frank Neese         #
                  #        Max Planck Institute fuer Kohlenforschung    #
                  #                Kaiser Wilhelm Platz 1               #
                  #                 D-45470 Muelheim/Ruhr               #
                  #                      Germany                        #
                  #                                                     #
                  #                  All rights reserved                #
                  #                        -***-                        #
                  #######################################################



                         Program Version 5.0.4 -  RELEASE  -

 With contributions from (in alphabetic order):
   Daniel Aravena         : Magnetic Suceptibility
   Michael Atanasov       : Ab Initio Ligand Field Theory (pilot matlab implementation)
   Alexander A. Auer      : GIAO ZORA, VPT2 properties, NMR spectrum
   Ute Becker             : Parallelization
   Giovanni Bistoni       : ED, misc. LED, open-shell LED, HFLD
   Martin Brehm           : Molecular dynamics
   Dmytro Bykov           : SCF Hessian
   Vijay G. Chilkuri      : MRCI spin determinant printing, contributions to CSF-ICE
   Dipayan Datta          : RHF DLPNO-CCSD density
   Achintya Kumar Dutta   : EOM-CC, STEOM-CC
   Dmitry Ganyushin       : Spin-Orbit,Spin-Spin,Magnetic field MRCI
   Miquel Garcia          : C-PCM and meta-GGA Hessian, CC/C-PCM, Gaussian charge scheme
   Yang Guo               : DLPNO-NEVPT2, F12-NEVPT2, CIM, IAO-localization
   Andreas Hansen         : Spin unrestricted coupled pair/coupled cluster methods
   Benjamin Helmich-Paris : MC-RPA, TRAH-SCF, COSX integrals
   Lee Huntington         : MR-EOM, pCC
   Robert Izsak           : Overlap fitted RIJCOSX, COSX-SCS-MP3, EOM
   Marcus Kettner         : VPT2
   Christian Kollmar      : KDIIS, OOCD, Brueckner-CCSD(T), CCSD density, CASPT2, CASPT2-K
   Simone Kossmann        : Meta GGA functionals, TD-DFT gradient, OOMP2, MP2 Hessian
   Martin Krupicka        : Initial AUTO-CI
   Lucas Lang             : DCDCAS
   Marvin Lechner         : AUTO-CI (C++ implementation), FIC-MRCC
   Dagmar Lenk            : GEPOL surface, SMD
   Dimitrios Liakos       : Extrapolation schemes; Compound Job, initial MDCI parallelization
   Dimitrios Manganas     : Further ROCIS development; embedding schemes
   Dimitrios Pantazis     : SARC Basis sets
   Anastasios Papadopoulos: AUTO-CI, single reference methods and gradients
   Taras Petrenko         : DFT Hessian,TD-DFT gradient, ASA, ECA, R-Raman, ABS, FL, XAS/XES, NRVS
   Peter Pinski           : DLPNO-MP2, DLPNO-MP2 Gradient
   Christoph Reimann      : Effective Core Potentials
   Marius Retegan         : Local ZFS, SOC
   Christoph Riplinger    : Optimizer, TS searches, QM/MM, DLPNO-CCSD(T), (RO)-DLPNO pert. Triples
   Tobias Risthaus        : Range-separated hybrids, TD-DFT gradient, RPA, STAB
   Michael Roemelt        : Original ROCIS implementation
   Masaaki Saitow         : Open-shell DLPNO-CCSD energy and density
   Barbara Sandhoefer     : DKH picture change effects
   Avijit Sen             : IP-ROCIS
   Kantharuban Sivalingam : CASSCF convergence, NEVPT2, FIC-MRCI
   Bernardo de Souza      : ESD, SOC TD-DFT
   Georgi Stoychev        : AutoAux, RI-MP2 NMR, DLPNO-MP2 response
   Willem Van den Heuvel  : Paramagnetic NMR
   Boris Wezisla          : Elementary symmetry handling
   Frank Wennmohs         : Technical directorship


 We gratefully acknowledge several colleagues who have allowed us to
 interface, adapt or use parts of their codes:
   Stefan Grimme, W. Hujo, H. Kruse, P. Pracht,  : VdW corrections, initial TS optimization,
                  C. Bannwarth, S. Ehlert          DFT functionals, gCP, sTDA/sTD-DF
   Ed Valeev, F. Pavosevic, A. Kumar             : LibInt (2-el integral package), F12 methods
   Garnet Chan, S. Sharma, J. Yang, R. Olivares  : DMRG
   Ulf Ekstrom                                   : XCFun DFT Library
   Mihaly Kallay                                 : mrcc  (arbitrary order and MRCC methods)
   Jiri Pittner, Ondrej Demel                    : Mk-CCSD
   Frank Weinhold                                : gennbo (NPA and NBO analysis)
   Christopher J. Cramer and Donald G. Truhlar   : smd solvation model
   Lars Goerigk                                  : TD-DFT with DH, B97 family of functionals
   V. Asgeirsson, H. Jonsson                     : NEB implementation
   FAccTs GmbH                                   : IRC, NEB, NEB-TS, DLPNO-Multilevel, CI-OPT
                                                   MM, QMMM, 2- and 3-layer-ONIOM, Crystal-QMMM,
                                                   LR-CPCM, SF, NACMEs, symmetry and pop. for TD-DFT,
                                                   nearIR, NL-DFT gradient (VV10), updates on ESD,
                                                   ML-optimized integration grids
   S Lehtola, MJT Oliveira, MAL Marques          : LibXC Library
   Liviu Ungur et al                             : ANISO software


 Your calculation uses the libint2 library for the computation of 2-el integrals
 For citations please refer to: http://libint.valeyev.net

 Your ORCA version has been built with support for libXC version: 5.1.0
 For citations please refer to: https://tddft.org/programs/libxc/

 This ORCA versions uses:
   CBLAS   interface :  Fast vector & matrix operations
   LAPACKE interface :  Fast linear algebra routines
   Shared memory     :  Shared parallel matrices


================================================================================

----- Orbital basis set information -----
Your calculation utilizes the basis: def2-SVP
   F. Weigend and R. Ahlrichs, Phys. Chem. Chem. Phys. 7, 3297 (2005).

----- AuxJ basis set information -----
Your calculation utilizes the auxiliary basis: def2/J
   F. Weigend, Phys. Chem. Chem. Phys. 8, 1057 (2006).

================================================================================
                                        WARNINGS
                       Please study these warnings very carefully!
================================================================================

WARNING: Gradients needed for Numerical Frequencies
  ===> : Setting RunTyp to EnGrad

INFO   : the flag for use of the SHARK integral package has been found!

================================================================================
                                       INPUT FILE
================================================================================
NAME = benzen_rama_spectra.inp
|  1> !BP86 DEF2-SVP NUMFREQ
|  2> %ELPROP
|  3>    POLAR 1
|  4> END
|  5> 
|  6> * xyz 0 1
|  7>   C      -4.127240      1.598090      0.000000
|  8>   C      -5.236140      0.753090      0.000000
|  9>   C      -5.058790     -0.629750      0.000000
| 10>   C      -3.772550     -1.167590      0.000000
| 11>   C      -2.663650     -0.322590      0.000000
| 12>   C      -2.840990      1.060250      0.000000
| 13>   H      -4.265550      2.676550      0.000000
| 14>   H      -1.976170      1.719260      0.000000
| 15>   H      -1.660520     -0.742040      0.000000
| 16>   H      -3.634240     -2.246050      0.000000
| 17>   H      -5.923620     -1.288760      0.000000
| 18>   H      -6.239270      1.172540      0.000000
| 19> **                         ****END OF INPUT****
================================================================================

                     *******************************
                     * Energy+Gradient Calculation *
                     *******************************

---------------------------------
CARTESIAN COORDINATES (ANGSTROEM)
---------------------------------
  C     -4.127240    1.598090    0.000000
  C     -5.236140    0.753090    0.000000
  C     -5.058790   -0.629750    0.000000
  C     -3.772550   -1.167590    0.000000
  C     -2.663650   -0.322590    0.000000
  C     -2.840990    1.060250    0.000000
  H     -4.265550    2.676550    0.000000
  H     -1.976170    1.719260    0.000000
  H     -1.660520   -0.742040    0.000000
  H     -3.634240   -2.246050    0.000000
  H     -5.923620   -1.288760    0.000000
  H     -6.239270    1.172540    0.000000

----------------------------
CARTESIAN COORDINATES (A.U.)
----------------------------
  NO LB      ZA    FRAG     MASS         X           Y           Z
   0 C     6.0000    0    12.011   -7.799353    3.019952    0.000000
   1 C     6.0000    0    12.011   -9.894871    1.423134    0.000000
   2 C     6.0000    0    12.011   -9.559728   -1.190055    0.000000
   3 C     6.0000    0    12.011   -7.129086   -2.206425    0.000000
   4 C     6.0000    0    12.011   -5.033569   -0.609607    0.000000
   5 C     6.0000    0    12.011   -5.368693    2.003582    0.000000
   6 H     1.0000    0     1.008   -8.060721    5.057946    0.000000
   7 H     1.0000    0     1.008   -3.734420    3.248931    0.000000
   8 H     1.0000    0     1.008   -3.137928   -1.402252    0.000000
   9 H     1.0000    0     1.008   -6.867718   -4.244419    0.000000
  10 H     1.0000    0     1.008  -11.194020   -2.435403    0.000000
  11 H     1.0000    0     1.008  -11.790512    2.215779    0.000000

--------------------------------
INTERNAL COORDINATES (ANGSTROEM)
--------------------------------
 C      0   0   0     0.000000000000     0.00000000     0.00000000
 C      1   0   0     1.394160754719     0.00000000     0.00000000
 C      2   1   0     1.394166234027   119.99967529     0.00000000
 C      3   2   1     1.394161110919   120.00051591     0.00000000
 C      4   3   2     1.394160754719   119.99980880     0.00000000
 C      5   4   3     1.394164961975   120.00008292     0.00000000
 H      1   2   3     1.087292797594   119.99983709   180.00000085
 H      6   5   4     1.087293802291   120.00020724   180.00000000
 H      5   4   3     1.087293934224   120.00018946   180.00000085
 H      4   3   2     1.087292797594   120.00035411   180.00000085
 H      3   2   1     1.087301756184   119.99948022   180.00000085
 H      2   1   3     1.087293934224   120.00018946   180.00000000

---------------------------
INTERNAL COORDINATES (A.U.)
---------------------------
 C      0   0   0     0.000000000000     0.00000000     0.00000000
 C      1   0   0     2.634582013081     0.00000000     0.00000000
 C      2   1   0     2.634592367471   119.99967529     0.00000000
 C      3   2   1     2.634582686201   120.00051591     0.00000000
 C      4   3   2     2.634582013081   119.99980880     0.00000000
 C      5   4   3     2.634589963642   120.00008292     0.00000000
 H      1   2   3     2.054685614838   119.99983709   180.00000085
 H      6   5   4     2.054687513440   120.00020724   180.00000000
 H      5   4   3     2.054687762757   120.00018946   180.00000085
 H      4   3   2     2.054685614838   120.00035411   180.00000085
 H      3   2   1     2.054702544119   119.99948022   180.00000085
 H      2   1   3     2.054687762757   120.00018946   180.00000000

---------------------
BASIS SET INFORMATION
---------------------
There are 2 groups of distinct atoms

 Group   1 Type C   : 7s4p1d contracted to 3s2p1d pattern {511/31/1}
 Group   2 Type H   : 4s1p contracted to 2s1p pattern {31/1}

Atom   0C    basis set group =>   1
Atom   1C    basis set group =>   1
Atom   2C    basis set group =>   1
Atom   3C    basis set group =>   1
Atom   4C    basis set group =>   1
Atom   5C    basis set group =>   1
Atom   6H    basis set group =>   2
Atom   7H    basis set group =>   2
Atom   8H    basis set group =>   2
Atom   9H    basis set group =>   2
Atom  10H    basis set group =>   2
Atom  11H    basis set group =>   2
---------------------------------
AUXILIARY/J BASIS SET INFORMATION
---------------------------------
There are 2 groups of distinct atoms

 Group   1 Type C   : 12s5p4d2f1g contracted to 6s4p3d1f1g pattern {711111/2111/211/2/1}
 Group   2 Type H   : 5s2p1d contracted to 3s1p1d pattern {311/2/1}

Atom   0C    basis set group =>   1
Atom   1C    basis set group =>   1
Atom   2C    basis set group =>   1
Atom   3C    basis set group =>   1
Atom   4C    basis set group =>   1
Atom   5C    basis set group =>   1
Atom   6H    basis set group =>   2
Atom   7H    basis set group =>   2
Atom   8H    basis set group =>   2
Atom   9H    basis set group =>   2
Atom  10H    basis set group =>   2
Atom  11H    basis set group =>   2
------------------------------------------------------------------------------
                           ORCA GTO INTEGRAL CALCULATION
                           -- RI-GTO INTEGRALS CHOSEN --
------------------------------------------------------------------------------
------------------------------------------------------------------------------
                   ___                                                        
                  /   \      - P O W E R E D   B Y -                         
                 /     \                                                     
                 |  |  |   _    _      __       _____    __    __             
                 |  |  |  | |  | |    /  \     |  _  \  |  |  /  |          
                  \  \/   | |  | |   /    \    | | | |  |  | /  /          
                 / \  \   | |__| |  /  /\  \   | |_| |  |  |/  /          
                |  |  |   |  __  | /  /__\  \  |    /   |      \           
                |  |  |   | |  | | |   __   |  |    \   |  |\   \          
                \     /   | |  | | |  |  |  |  | |\  \  |  | \   \       
                 \___/    |_|  |_| |__|  |__|  |_| \__\ |__|  \__/        
                                                                              
                      - O R C A' S   B I G   F R I E N D -                    
                                      &                                       
                       - I N T E G R A L  F E E D E R -                       
                                                                              
 v1 FN, 2020, v2 2021                                                         
------------------------------------------------------------------------------


Reading SHARK input file benzen_rama_spectra.SHARKINP.tmp ... ok
----------------------
SHARK INTEGRAL PACKAGE
----------------------

Number of atoms                             ...     12
Number of basis functions                   ...    114
Number of shells                            ...     54
Maximum angular momentum                    ...      2
Integral batch strategy                     ... SHARK/LIBINT Hybrid
RI-J (if used) integral strategy            ... SPLIT-RIJ (Revised 2003 algorithm where possible)
Printlevel                                  ...      1
Contraction scheme used                     ... SEGMENTED contraction
Coulomb Range Separation                    ... NOT USED
Exchange Range Separation                   ... NOT USED
Finite Nucleus Model                        ... NOT USED
Auxiliary Coulomb fitting basis             ... AVAILABLE
   # of basis functions in Aux-J            ...    360
   # of shells in Aux-J                     ...    120
   Maximum angular momentum in Aux-J        ...      4
Auxiliary J/K fitting basis                 ... NOT available
Auxiliary Correlation fitting basis         ... NOT available
Auxiliary 'external' fitting basis          ... NOT available
Integral threshold                          ...     2.500000e-11
Primitive cut-off                           ...     2.500000e-12
Primitive pair pre-selection threshold      ...     2.500000e-12

Calculating pre-screening integrals         ... done (  0.0 sec) Dimension = 54
Organizing shell pair data                  ... done (  0.0 sec)
Shell pair information
Total number of shell pairs                 ...      1485
Shell pairs after pre-screening             ...      1467
Total number of primitive shell pairs       ...      5349
Primitive shell pairs kept                  ...      4140
          la=0 lb=0:    456 shell pairs
          la=1 lb=0:    534 shell pairs
          la=1 lb=1:    168 shell pairs
          la=2 lb=0:    180 shell pairs
          la=2 lb=1:    108 shell pairs
          la=2 lb=2:     21 shell pairs

Calculating one electron integrals          ... done (  0.0 sec)
Calculating RI/J V-Matrix + Cholesky decomp.... done (  0.0 sec)
Calculating Nuclear repulsion               ... done (  0.0 sec) ENN=    203.482178309162 Eh

SHARK setup successfully completed in   0.2 seconds

Maximum memory used throughout the entire GTOINT-calculation: 13.6 MB
-------------------------------------------------------------------------------
                                 ORCA SCF
-------------------------------------------------------------------------------

------------
SCF SETTINGS
------------
Hamiltonian:
 Density Functional     Method          .... DFT(GTOs)
 Exchange Functional    Exchange        .... B88
   X-Alpha parameter    XAlpha          ....  0.666667
   Becke's b parameter  XBeta           ....  0.004200
 Correlation Functional Correlation     .... P86
 LDA part of GGA corr.  LDAOpt          .... PW91-LDA
 Gradients option       PostSCFGGA      .... off
   Density functional embedding theory  .... OFF
   NL short-range parameter             ....  4.400000
 RI-approximation to the Coulomb term is turned on
   Number of AuxJ basis functions       .... 360


General Settings:
 Integral files         IntName         .... benzen_rama_spectra
 Hartree-Fock type      HFTyp           .... RHF
 Total Charge           Charge          ....    0
 Multiplicity           Mult            ....    1
 Number of Electrons    NEL             ....   42
 Basis Dimension        Dim             ....  114
 Nuclear Repulsion      ENuc            ....    203.4821783092 Eh

Convergence Acceleration:
 DIIS                   CNVDIIS         .... on
   Start iteration      DIISMaxIt       ....    12
   Startup error        DIISStart       ....  0.200000
   # of expansion vecs  DIISMaxEq       ....     5
   Bias factor          DIISBfac        ....   1.050
   Max. coefficient     DIISMaxC        ....  10.000
 Trust-Rad. Augm. Hess. CNVTRAH         .... auto
   Auto Start mean grad. ratio tolernc. ....  1.125000
   Auto Start start iteration           ....    20
   Auto Start num. interpolation iter.  ....    10
   Max. Number of Micro iterations      ....    16
   Max. Number of Macro iterations      .... Maxiter - #DIIS iter
   Number of Davidson start vectors     ....     2
   Converg. threshold I  (grad. norm)   ....   1.000e-05
   Converg. threshold II (energy diff.) ....   1.000e-08
   Grad. Scal. Fac. for Micro threshold ....   0.100
   Minimum threshold for Micro iter.    ....   0.010
   NR start threshold (gradient norm)   ....   0.001
   Initial trust radius                 ....   0.400
   Minimum AH scaling param. (alpha)    ....   1.000
   Maximum AH scaling param. (alpha)    .... 1000.000
   Orbital update algorithm             .... Taylor
   White noise on init. David. guess    .... on
   Maximum white noise                  ....   0.010
   Quad. conv. algorithm                .... NR
 SOSCF                  CNVSOSCF        .... on
   Start iteration      SOSCFMaxIt      ....   150
   Startup grad/error   SOSCFStart      ....  0.003300
 Level Shifting         CNVShift        .... on
   Level shift para.    LevelShift      ....    0.2500
   Turn off err/grad.   ShiftErr        ....    0.0010
 Zerner damping         CNVZerner       .... off
 Static damping         CNVDamp         .... on
   Fraction old density DampFac         ....    0.7000
   Max. Damping (<1)    DampMax         ....    0.9800
   Min. Damping (>=0)   DampMin         ....    0.0000
   Turn off err/grad.   DampErr         ....    0.1000
 Fernandez-Rico         CNVRico         .... off

SCF Procedure:
 Maximum # iterations   MaxIter         ....   125
 SCF integral mode      SCFMode         .... Direct
   Integral package                     .... SHARK and LIBINT hybrid scheme
 Reset frequency        DirectResetFreq ....    20
 Integral Threshold     Thresh          ....  2.500e-11 Eh
 Primitive CutOff       TCut            ....  2.500e-12 Eh

Convergence Tolerance:
 Convergence Check Mode ConvCheckMode   .... Total+1el-Energy
 Convergence forced     ConvForced      .... 0
 Energy Change          TolE            ....  1.000e-08 Eh
 1-El. energy change                    ....  1.000e-05 Eh
 Orbital Gradient       TolG            ....  1.000e-05
 Orbital Rotation angle TolX            ....  1.000e-05
 DIIS Error             TolErr          ....  5.000e-07


Diagonalization of the overlap matrix:
Smallest eigenvalue                        ... 3.141e-04
Time for diagonalization                   ...    0.003 sec
Threshold for overlap eigenvalues          ... 1.000e-08
Number of eigenvalues below threshold      ... 0
Time for construction of square roots      ...    0.003 sec
Total time needed                          ...    0.006 sec

Time for model grid setup =    0.120 sec

------------------------------
INITIAL GUESS: MODEL POTENTIAL
------------------------------
Loading Hartree-Fock densities                     ... done
Calculating cut-offs                               ... done
Initializing the effective Hamiltonian             ... done
Setting up the integral package (SHARK)            ... done
Starting the Coulomb interaction                   ... done (   0.1 sec)
Reading the grid                                   ... done
Mapping shells                                     ... done
Starting the XC term evaluation                    ... done (   0.2 sec)
  promolecular density results
     # of electrons  =     41.996734249
     EX              =    -32.606761098
     EC              =     -1.491967191
     EX+EC           =    -34.098728289
Transforming the Hamiltonian                       ... done (   0.0 sec)
Diagonalizing the Hamiltonian                      ... done (   0.0 sec)
Back transforming the eigenvectors                 ... done (   0.0 sec)
Now organizing SCF variables                       ... done
                      ------------------
                      INITIAL GUESS DONE (   0.4 sec)
                      ------------------
-------------------
DFT GRID GENERATION
-------------------

General Integration Accuracy     IntAcc      ... 4.388
Radial Grid Type                 RadialGrid  ... OptM3 with GC (2021)
Angular Grid (max. ang.)         AngularGrid ... 4 (Lebedev-302)
Angular grid pruning method      GridPruning ... 4 (adaptive)
Weight generation scheme         WeightScheme... Becke
Basis function cutoff            BFCut       ... 1.0000e-11
Integration weight cutoff        WCut        ... 1.0000e-14
Angular grids for H and He will be reduced by one unit
Partially contracted basis set               ... off
Rotationally invariant grid construction     ... off

Total number of grid points                  ...    55560
Total number of batches                      ...      872
Average number of points per batch           ...       63
Average number of grid points per atom       ...     4630
Time for grid setup =    0.487 sec

--------------
SCF ITERATIONS
--------------
ITER       Energy         Delta-E        Max-DP      RMS-DP      [F,P]     Damp
               ***  Starting incremental Fock matrix formation  ***
  0   -231.9637803395   0.000000000000 0.04693070  0.00249391  0.1160290 0.7000
  1   -232.0175533549  -0.053773015407 0.03008087  0.00177312  0.0541699 0.7000
                               ***Turning on DIIS***
  2   -232.0384483856  -0.020895030709 0.04258085  0.00284399  0.0200332 0.0000
  3   -232.0669887618  -0.028540376166 0.01977414  0.00136889  0.0388799 0.0000
  4   -232.0766258276  -0.009637065851 0.00555051  0.00032484  0.0073881 0.0000
                      *** Initiating the SOSCF procedure ***
                           *** Shutting down DIIS ***
                      *** Re-Reading the Fockian *** 
                      *** Removing any level shift *** 
ITER      Energy       Delta-E        Grad      Rot      Max-DP    RMS-DP
  5   -232.07704423  -0.0004184060  0.000753  0.000753  0.001985  0.000130
               *** Restarting incremental Fock matrix formation ***
  6   -232.07706564  -0.0000214078  0.000306  0.000709  0.001203  0.000083
  7   -232.07706632  -0.0000006796  0.000219  0.000186  0.000290  0.000021
  8   -232.07706726  -0.0000009418  0.000056  0.000082  0.000247  0.000015
  9   -232.07706731  -0.0000000470  0.000024  0.000027  0.000058  0.000004
                  ***Gradient check signals convergence***
              ***Rediagonalizing the Fockian in SOSCF/NRSCF***

               *****************************************************
               *                     SUCCESS                       *
               *           SCF CONVERGED AFTER  10 CYCLES          *
               *****************************************************


----------------
TOTAL SCF ENERGY
----------------

Total Energy       :         -232.07706733 Eh           -6315.13806 eV

Components:
Nuclear Repulsion  :          203.48217831 Eh            5537.03157 eV
Electronic Energy  :         -435.55924563 Eh          -11852.16963 eV
One Electron Energy:         -713.95015094 Eh          -19427.57129 eV
Two Electron Energy:          278.39090531 Eh            7575.40166 eV

Virial components:
Potential Energy   :         -461.46281244 Eh          -12557.04151 eV
Kinetic Energy     :          229.38574512 Eh            6241.90346 eV
Virial Ratio       :            2.01173274


DFT components:
N(Alpha)           :       20.999983235173 electrons
N(Beta)            :       20.999983235173 electrons
N(Total)           :       41.999966470347 electrons
E(X)               :      -33.231904468645 Eh       
E(C)               :       -1.499950548000 Eh       
E(XC)              :      -34.731855016645 Eh       
DFET-embed. en.    :        0.000000000000 Eh       

---------------
SCF CONVERGENCE
---------------

  Last Energy change         ...   -1.5763e-08  Tolerance :   1.0000e-08
  Last MAX-Density change    ...    1.0487e-05  Tolerance :   1.0000e-07
  Last RMS-Density change    ...    5.4018e-07  Tolerance :   5.0000e-09
  Last Orbital Gradient      ...    2.2579e-06  Tolerance :   1.0000e-05
  Last Orbital Rotation      ...    6.5144e-06  Tolerance :   1.0000e-05

             **** THE GBW FILE WAS UPDATED (benzen_rama_spectra.gbw) ****
             **** DENSITY benzen_rama_spectra.scfp WAS UPDATED ****
             **** ENERGY FILE WAS UPDATED (benzen_rama_spectra.en.tmp) ****
             **** THE GBW FILE WAS UPDATED (benzen_rama_spectra.gbw) ****
             **** DENSITY benzen_rama_spectra.scfp WAS UPDATED ****
----------------
ORBITAL ENERGIES
----------------

  NO   OCC          E(Eh)            E(eV) 
   0   2.0000      -9.915697      -269.8198 
   1   2.0000      -9.915613      -269.8175 
   2   2.0000      -9.915608      -269.8174 
   3   2.0000      -9.915370      -269.8109 
   4   2.0000      -9.915365      -269.8108 
   5   2.0000      -9.915330      -269.8099 
   6   2.0000      -0.773328       -21.0433 
   7   2.0000      -0.670313       -18.2401 
   8   2.0000      -0.670307       -18.2400 
   9   2.0000      -0.539843       -14.6899 
  10   2.0000      -0.539842       -14.6898 
  11   2.0000      -0.472821       -12.8661 
  12   2.0000      -0.407528       -11.0894 
  13   2.0000      -0.401197       -10.9171 
  14   2.0000      -0.376026       -10.2322 
  15   2.0000      -0.376020       -10.2320 
  16   2.0000      -0.332523        -9.0484 
  17   2.0000      -0.303284        -8.2528 
  18   2.0000      -0.303283        -8.2528 
  19   2.0000      -0.231666        -6.3040 
  20   2.0000      -0.231660        -6.3038 
  21   0.0000      -0.039484        -1.0744 
  22   0.0000      -0.039482        -1.0744 
  23   0.0000       0.040001         1.0885 
  24   0.0000       0.083289         2.2664 
  25   0.0000       0.083293         2.2665 
  26   0.0000       0.105056         2.8587 
  27   0.0000       0.120964         3.2916 
  28   0.0000       0.120981         3.2921 
  29   0.0000       0.142094         3.8666 
  30   0.0000       0.252154         6.8615 
  31   0.0000       0.252157         6.8615 
  32   0.0000       0.263474         7.1695 
  33   0.0000       0.263479         7.1696 
  34   0.0000       0.329696         8.9715 
  35   0.0000       0.371794        10.1170 
  36   0.0000       0.382949        10.4206 
  37   0.0000       0.382964        10.4210 
  38   0.0000       0.399856        10.8806 
  39   0.0000       0.426171        11.5967 
  40   0.0000       0.428274        11.6539 
  41   0.0000       0.462452        12.5840 
  42   0.0000       0.462456        12.5841 
  43   0.0000       0.495550        13.4846 
  44   0.0000       0.495951        13.4955 
  45   0.0000       0.495965        13.4959 
  46   0.0000       0.557751        15.1772 
  47   0.0000       0.557755        15.1773 
  48   0.0000       0.593869        16.1600 
  49   0.0000       0.593873        16.1601 
  50   0.0000       0.628611        17.1054 
  51   0.0000       0.628626        17.1058 
  52   0.0000       0.629468        17.1287 
  53   0.0000       0.679126        18.4799 
  54   0.0000       0.679136        18.4802 
  55   0.0000       0.689088        18.7510 
  56   0.0000       0.696337        18.9483 
  57   0.0000       0.726227        19.7617 
  58   0.0000       0.726241        19.7620 
  59   0.0000       0.789491        21.4831 
  60   0.0000       0.844617        22.9832 
  61   0.0000       0.975513        26.5450 
  62   0.0000       0.975560        26.5463 
  63   0.0000       1.092533        29.7293 
  64   0.0000       1.181873        32.1604 
  65   0.0000       1.181877        32.1605 
  66   0.0000       1.186770        32.2936 
  67   0.0000       1.218731        33.1633 
  68   0.0000       1.218743        33.1637 
  69   0.0000       1.241864        33.7928 
  70   0.0000       1.241867        33.7929 
  71   0.0000       1.466467        39.9046 
  72   0.0000       1.577080        42.9145 
  73   0.0000       1.581840        43.0441 
  74   0.0000       1.606385        43.7119 
  75   0.0000       1.670921        45.4681 
  76   0.0000       1.681566        45.7577 
  77   0.0000       1.681567        45.7578 
  78   0.0000       1.687848        45.9287 
  79   0.0000       1.687850        45.9287 
  80   0.0000       1.694303        46.1043 
  81   0.0000       1.694308        46.1045 
  82   0.0000       1.761077        47.9213 
  83   0.0000       1.761081        47.9214 
  84   0.0000       1.859781        50.6072 
  85   0.0000       1.910847        51.9968 
  86   0.0000       1.910849        51.9969 
  87   0.0000       1.914492        52.0960 
  88   0.0000       1.918456        52.2038 
  89   0.0000       1.918459        52.2039 
  90   0.0000       2.049672        55.7744 
  91   0.0000       2.068457        56.2856 
  92   0.0000       2.068471        56.2859 
  93   0.0000       2.069919        56.3254 
  94   0.0000       2.222282        60.4714 
  95   0.0000       2.222283        60.4714 
  96   0.0000       2.235584        60.8333 
  97   0.0000       2.235586        60.8334 
  98   0.0000       2.273763        61.8722 
  99   0.0000       2.273767        61.8724 
 100   0.0000       2.483858        67.5892 
 101   0.0000       2.525031        68.7096 
 102   0.0000       2.525032        68.7096 
 103   0.0000       2.567320        69.8603 
 104   0.0000       2.651148        72.1414 
 105   0.0000       2.651152        72.1415 
 106   0.0000       2.651912        72.1622 
 107   0.0000       2.784450        75.7687 
 108   0.0000       2.784453        75.7688 
 109   0.0000       2.816061        76.6289 
 110   0.0000       3.046595        82.9021 
 111   0.0000       3.046602        82.9022 
 112   0.0000       3.169612        86.2495 
 113   0.0000       3.582706        97.4904 

                    ********************************
                    * MULLIKEN POPULATION ANALYSIS *
                    ********************************

-----------------------
MULLIKEN ATOMIC CHARGES
-----------------------
   0 C :    0.004803
   1 C :    0.004805
   2 C :    0.004899
   3 C :    0.004806
   4 C :    0.004801
   5 C :    0.004908
   6 H :   -0.004835
   7 H :   -0.004853
   8 H :   -0.004825
   9 H :   -0.004835
  10 H :   -0.004850
  11 H :   -0.004825
Sum of atomic charges:    0.0000000

--------------------------------
MULLIKEN REDUCED ORBITAL CHARGES
--------------------------------
  0 C s       :     3.166957  s :     3.166957
      pz      :     0.986589  p :     2.795375
      px      :     0.962498
      py      :     0.846288
      dz2     :     0.002240  d :     0.032865
      dxz     :     0.006135
      dyz     :     0.002206
      dx2y2   :     0.012473
      dxy     :     0.009812
  1 C s       :     3.166971  s :     3.166971
      pz      :     0.986585  p :     2.795358
      px      :     0.862211
      py      :     0.946562
      dz2     :     0.002240  d :     0.032865
      dxz     :     0.002744
      dyz     :     0.005596
      dx2y2   :     0.011122
      dxy     :     0.011163
  2 C s       :     3.166934  s :     3.166934
      pz      :     0.986586  p :     2.795302
      px      :     0.888427
      py      :     0.920289
      dz2     :     0.002240  d :     0.032865
      dxz     :     0.003632
      dyz     :     0.004709
      dx2y2   :     0.009832
      dxy     :     0.012452
  3 C s       :     3.166955  s :     3.166955
      pz      :     0.986592  p :     2.795373
      px      :     0.962499
      py      :     0.846283
      dz2     :     0.002240  d :     0.032866
      dxz     :     0.006135
      dyz     :     0.002206
      dx2y2   :     0.012473
      dxy     :     0.009812
  4 C s       :     3.166971  s :     3.166971
      pz      :     0.986585  p :     2.795362
      px      :     0.862215
      py      :     0.946562
      dz2     :     0.002240  d :     0.032865
      dxz     :     0.002744
      dyz     :     0.005596
      dx2y2   :     0.011122
      dxy     :     0.011163
  5 C s       :     3.166934  s :     3.166934
      pz      :     0.986585  p :     2.795293
      px      :     0.888424
      py      :     0.920284
      dz2     :     0.002240  d :     0.032864
      dxz     :     0.003632
      dyz     :     0.004709
      dx2y2   :     0.009832
      dxy     :     0.012452
  6 H s       :     0.982480  s :     0.982480
      pz      :     0.005072  p :     0.022355
      px      :     0.003880
      py      :     0.013403
  7 H s       :     0.982498  s :     0.982498
      pz      :     0.005072  p :     0.022355
      px      :     0.009947
      py      :     0.007336
  8 H s       :     0.982471  s :     0.982471
      pz      :     0.005072  p :     0.022355
      px      :     0.012097
      py      :     0.005185
  9 H s       :     0.982480  s :     0.982480
      pz      :     0.005072  p :     0.022355
      px      :     0.003880
      py      :     0.013403
 10 H s       :     0.982495  s :     0.982495
      pz      :     0.005072  p :     0.022355
      px      :     0.009947
      py      :     0.007336
 11 H s       :     0.982471  s :     0.982471
      pz      :     0.005072  p :     0.022355
      px      :     0.012097
      py      :     0.005185


                     *******************************
                     * LOEWDIN POPULATION ANALYSIS *
                     *******************************

----------------------
LOEWDIN ATOMIC CHARGES
----------------------
   0 C :   -0.029361
   1 C :   -0.029362
   2 C :   -0.029360
   3 C :   -0.029365
   4 C :   -0.029362
   5 C :   -0.029357
   6 H :    0.029361
   7 H :    0.029358
   8 H :    0.029364
   9 H :    0.029361
  10 H :    0.029359
  11 H :    0.029365

-------------------------------
LOEWDIN REDUCED ORBITAL CHARGES
-------------------------------
  0 C s       :     2.863506  s :     2.863506
      pz      :     0.968069  p :     3.076806
      px      :     1.068845
      py      :     1.039892
      dz2     :     0.005867  d :     0.089049
      dxz     :     0.013425
      dyz     :     0.003872
      dx2y2   :     0.035745
      dxy     :     0.030140
  1 C s       :     2.863507  s :     2.863507
      pz      :     0.968067  p :     3.076806
      px      :     1.043864
      py      :     1.064876
      dz2     :     0.005867  d :     0.089049
      dxz     :     0.005181
      dyz     :     0.012116
      dx2y2   :     0.032900
      dxy     :     0.032985
  2 C s       :     2.863509  s :     2.863509
      pz      :     0.968069  p :     3.076801
      px      :     1.050397
      py      :     1.058335
      dz2     :     0.005867  d :     0.089050
      dxz     :     0.007339
      dyz     :     0.009958
      dx2y2   :     0.030184
      dxy     :     0.035703
  3 C s       :     2.863504  s :     2.863504
      pz      :     0.968072  p :     3.076810
      px      :     1.068847
      py      :     1.039892
      dz2     :     0.005867  d :     0.089051
      dxz     :     0.013425
      dyz     :     0.003872
      dx2y2   :     0.035746
      dxy     :     0.030141
  4 C s       :     2.863506  s :     2.863506
      pz      :     0.968066  p :     3.076806
      px      :     1.043863
      py      :     1.064876
      dz2     :     0.005867  d :     0.089049
      dxz     :     0.005181
      dyz     :     0.012116
      dx2y2   :     0.032900
      dxy     :     0.032985
  5 C s       :     2.863509  s :     2.863509
      pz      :     0.968069  p :     3.076799
      px      :     1.050396
      py      :     1.058335
      dz2     :     0.005867  d :     0.089049
      dxz     :     0.007339
      dyz     :     0.009958
      dx2y2   :     0.030183
      dxy     :     0.035703
  6 H s       :     0.902710  s :     0.902710
      pz      :     0.014635  p :     0.067929
      px      :     0.012199
      py      :     0.041096
  7 H s       :     0.902713  s :     0.902713
      pz      :     0.014635  p :     0.067929
      px      :     0.030608
      py      :     0.022686
  8 H s       :     0.902707  s :     0.902707
      pz      :     0.014634  p :     0.067929
      px      :     0.037135
      py      :     0.016160
  9 H s       :     0.902710  s :     0.902710
      pz      :     0.014635  p :     0.067929
      px      :     0.012199
      py      :     0.041096
 10 H s       :     0.902713  s :     0.902713
      pz      :     0.014634  p :     0.067927
      px      :     0.030608
      py      :     0.022686
 11 H s       :     0.902707  s :     0.902707
      pz      :     0.014634  p :     0.067929
      px      :     0.037135
      py      :     0.016160


                      *****************************
                      * MAYER POPULATION ANALYSIS *
                      *****************************

  NA   - Mulliken gross atomic population
  ZA   - Total nuclear charge
  QA   - Mulliken gross atomic charge
  VA   - Mayer's total valence
  BVA  - Mayer's bonded valence
  FA   - Mayer's free valence

  ATOM       NA         ZA         QA         VA         BVA        FA
  0 C      5.9952     6.0000     0.0048     3.8530     3.8530     0.0000
  1 C      5.9952     6.0000     0.0048     3.8530     3.8530     0.0000
  2 C      5.9951     6.0000     0.0049     3.8529     3.8529    -0.0000
  3 C      5.9952     6.0000     0.0048     3.8530     3.8530    -0.0000
  4 C      5.9952     6.0000     0.0048     3.8530     3.8530     0.0000
  5 C      5.9951     6.0000     0.0049     3.8529     3.8529     0.0000
  6 H      1.0048     1.0000    -0.0048     0.9782     0.9782     0.0000
  7 H      1.0049     1.0000    -0.0049     0.9782     0.9782    -0.0000
  8 H      1.0048     1.0000    -0.0048     0.9782     0.9782     0.0000
  9 H      1.0048     1.0000    -0.0048     0.9782     0.9782     0.0000
 10 H      1.0048     1.0000    -0.0048     0.9782     0.9782    -0.0000
 11 H      1.0048     1.0000    -0.0048     0.9782     0.9782     0.0000

  Mayer bond orders larger than 0.100000
B(  0-C ,  1-C ) :   1.3907 B(  0-C ,  5-C ) :   1.3906 B(  0-C ,  6-H ) :   0.9807 
B(  1-C ,  2-C ) :   1.3906 B(  1-C , 11-H ) :   0.9807 B(  2-C ,  3-C ) :   1.3906 
B(  2-C , 10-H ) :   0.9807 B(  3-C ,  4-C ) :   1.3907 B(  3-C ,  9-H ) :   0.9807 
B(  4-C ,  5-C ) :   1.3906 B(  4-C ,  8-H ) :   0.9807 B(  5-C ,  7-H ) :   0.9807 


-------
TIMINGS
-------

Total SCF time: 0 days 0 hours 0 min 8 sec 

Total time                  ....       8.017 sec
Sum of individual times     ....       7.815 sec  ( 97.5%)

Fock matrix formation       ....       6.804 sec  ( 84.9%)
  Split-RI-J                ....       1.521 sec  ( 22.4% of F)
  XC integration            ....       5.252 sec  ( 77.2% of F)
    Basis function eval.    ....       2.010 sec  ( 38.3% of XC)
    Density eval.           ....       1.297 sec  ( 24.7% of XC)
    XC-Functional eval.     ....       0.426 sec  (  8.1% of XC)
    XC-Potential eval.      ....       1.202 sec  ( 22.9% of XC)
Diagonalization             ....       0.017 sec  (  0.2%)
Density matrix formation    ....       0.003 sec  (  0.0%)
Population analysis         ....       0.021 sec  (  0.3%)
Initial guess               ....       0.317 sec  (  4.0%)
Orbital Transformation      ....       0.000 sec  (  0.0%)
Orbital Orthonormalization  ....       0.000 sec  (  0.0%)
DIIS solution               ....       0.032 sec  (  0.4%)
SOSCF solution              ....       0.014 sec  (  0.2%)
Grid generation             ....       0.607 sec  (  7.6%)

Maximum memory used throughout the entire SCF-calculation: 30.1 MB

-------------------------   --------------------
FINAL SINGLE POINT ENERGY      -232.077067325525
-------------------------   --------------------

------------------------------------------------------------------------------
                         ORCA SCF GRADIENT CALCULATION
------------------------------------------------------------------------------

Gradient of the Kohn-Sham DFT energy:
Kohn-Sham wavefunction type      ... RKS
Hartree-Fock exchange scaling    ...    0.000
Number of operators              ...    1
Number of atoms                  ...   12
Basis set dimensions             ...  114
Integral neglect threshold       ... 2.5e-11
Integral primitive cutoff        ... 2.5e-12
SHARK Integral package           ... ON

Nuc. rep. gradient       (SHARK) ... done (  0.0 sec)
HCore & Overlap gradient (SHARK) ... done (  0.1 sec)
RI-J gradient            (SHARK) ... done (  0.6 sec)
Exchange-correlation gradient    ... done

------------------
CARTESIAN GRADIENT
------------------

   1   C   :    0.000236022   -0.001857328    0.000000000
   2   C   :    0.001761111   -0.000743696   -0.000000000
   3   C   :    0.001507918    0.001134140   -0.000000000
   4   C   :   -0.000241279    0.001858993   -0.000000000
   5   C   :   -0.001764214    0.000743421    0.000000000
   6   C   :   -0.001494866   -0.001132950   -0.000000000
   7   H   :    0.001222938   -0.009551770   -0.000000000
   8   H   :   -0.007655239   -0.005836096    0.000000000
   9   H   :   -0.008881291    0.003709935    0.000000000
  10   H   :   -0.001222995    0.009551555    0.000000000
  11   H   :    0.007650644    0.005833306    0.000000000
  12   H   :    0.008881251   -0.003709508    0.000000000

Difference to translation invariance:
           :    0.0000000000   -0.0000000000    0.0000000000

Difference to rotation invariance:
           :   -0.0000000018   -0.0000000002    0.0000359655

Norm of the cartesian gradient     ...    0.0240286870
RMS gradient                       ...    0.0040047812
MAX gradient                       ...    0.0095517703

-------
TIMINGS
-------

Total SCF gradient time            ...        4.249 sec

One electron gradient       ....       0.085 sec  (  2.0%)
RI-J Coulomb gradient       ....       0.558 sec  ( 13.1%)
XC gradient                 ....       3.532 sec  ( 83.1%)

Maximum memory used throughout the entire SCFGRAD-calculation: 23.8 MB

                            ***************************************
                            *     ORCA property calculations      *
                            ***************************************

                                    ---------------------
                                    Active property flags
                                    ---------------------
   (+) Dipole Moment
   (+) Polarizability


------------------------------------------------------------------------------
                       ORCA ELECTRIC PROPERTIES CALCULATION
------------------------------------------------------------------------------

Dipole Moment Calculation                       ... on
Quadrupole Moment Calculation                   ... off
Polarizability Calculation                      ... Analytic (CP-SCF)
GBWName                                         ... benzen_rama_spectra.gbw
Electron density                                ... benzen_rama_spectra.scfp
The origin for moment calculation is the CENTER OF MASS  = (-7.464217,  0.406764  0.000000)

-------------
DIPOLE MOMENT
-------------
                                X             Y             Z
Electronic contribution:      0.00001       0.00001      -0.00000
Nuclear contribution   :     -0.00001      -0.00000       0.00000
                        -----------------------------------------
Total Dipole Moment    :      0.00000       0.00001      -0.00000
                        -----------------------------------------
Magnitude (a.u.)       :      0.00001
Magnitude (Debye)      :      0.00003



--------------------
Rotational spectrum 
--------------------
 
Rotational constants in cm-1:     0.190144     0.190142     0.095071 
Rotational constants in MHz :  5700.361471  5700.315818  2850.169322 

 Dipole components along the rotational axes: 
x,y,z [a.u.] :    -0.000006    -0.000009    -0.000000 
x,y,z [Debye]:    -0.000016    -0.000023    -0.000000 

 
Transforming and storing MO dipole integrals   ... done

                ... starting polarizability calculation

The origin for moment calculation is the CENTER OF MASS  = (-7.464217,  0.406764  0.000000)
Opening the Dipole integral file               ... (benzen_rama_spectra.dmo.tmp) done
Reading Dipole-MO integrals                    ... done
Solving CP-SCF equations                       ... 
------------------------------------------------------------------------------
                           ORCA CP-SCF CALCULATION
------------------------------------------------------------------------------

Input orbitals are from        ... benzen_rama_spectra.gbw
Input Perturbation             ... benzen_rama_spectra.cpv.tmp
Wavefunction output            ... benzen_rama_spectra.cpu.tmp
Perturbation mode              ... Real perturbation (singlet)
Solver                         ... POPLE
Max. number of iterations      ... 64
Convergence tolerance          ... 1.000e-04
Integral handling              ... Direct
DFT GridXC                     ... 1
Number of perturbations        ... 3
Number of operators            ... 1
Orbital ranges used for CP-SCF:
 Operator 0:  Orbitals   0... 20  to  21...113
Variables per perturbation     ... 1953
DFT calculation                         ... on
XC functional terms                     ... on
Exchange functional (SCF)               ... B88
Exchange functional (CP-SCF)            ... B88
   X-Alpha parameter    XAlpha (SCF)    ...  0.666667
   X-Alpha parameter    XAlpha (CP-SCF) ...  0.666667
   Becke's b parameter  XBeta (SCF)     ...  0.004200
   Becke's b parameter  XBeta (CP-SCF)  ...  0.004200
Correlation functional (SCF)            ... P86
Correlation functional (CP-SCF)         ... P86
 LDA part of GGA corr.  LDAOpt (SCF)    ... PW91-LDA
 LDA part of GGA corr.  LDAOpt (CP-SCF) ... PW91-LDA

CP-SCF GRID
-----------

General Integration Accuracy     IntAcc      ... 3.467
Radial Grid Type                 RadialGrid  ... OptM3 with GC (2021)
Angular Grid (max. ang.)         AngularGrid ... 1 (Lebedev-50)
Angular grid pruning method      GridPruning ... 4 (adaptive)
Weight generation scheme         WeightScheme... Becke
Basis function cutoff            BFCut       ... 1.0000e-11
Integration weight cutoff        WCut        ... 1.0000e-14
Angular grids for H and He will be reduced by one unit
Partially contracted basis set               ... off
Rotationally invariant grid construction     ... off

Total number of grid points                  ...     8126
Total number of batches                      ...      132
Average number of points per batch           ...       61
Average number of grid points per atom       ...      677

Recalculating density on grid  ... done
Calculating the xc-kernel      ... done
Memory available               ... 1010.3 MB
Memory needed per perturbation ...   2.3 MB
Perturbations treated per batch... 3
Number of batches              ... 1
     CP-SCF ITERATION   0:   2.2426e+01 (   0.5 sec   0/  3 done)
     CP-SCF ITERATION   1:   5.5024e-01 (   0.4 sec   0/  3 done)
     CP-SCF ITERATION   2:   6.8158e-02 (   0.4 sec   0/  3 done)
     CP-SCF ITERATION   3:   6.5879e-03 (   0.4 sec   1/  3 done)
     CP-SCF ITERATION   4:   1.8239e-03 (   0.4 sec   1/  3 done)
     CP-SCF ITERATION   5:   3.9714e-04 (   0.4 sec   1/  3 done)
     CP-SCF ITERATION   6:   2.1314e-04 (   0.4 sec   1/  3 done)
     CP-SCF ITERATION   7:   1.6310e-05 (   0.4 sec   3/  3 done)
                    *** THE CP-SCF HAS CONVERGED ***
done
Reading CP-SCF coefficients                    ... done
Doing the polarizability tensor                ... done
Cleaning up                                    ... done

-------------------------
THE POLARIZABILITY TENSOR
-------------------------

The raw cartesian tensor (atomic units):
   74.15225     -0.00262      0.00000  
   -0.00262     74.14246     -0.00000  
    0.00000     -0.00000     27.89014  
diagonalized tensor: 
   27.89014     74.14180     74.15290  

   -0.00000      0.24302     -0.97002  
    0.00000      0.97002      0.24302  
    1.00000     -0.00000     -0.00000  

Isotropic polarizability :  58.72828


----------------------------------------------------------------------------
                           ORCA NUMERICAL FREQUENCIES
----------------------------------------------------------------------------

Number of atoms                ... 12
Central differences            ... used
Number of displacements        ... 72
Numerical increment            ... 5.000e-03 bohr
IR-spectrum generation         ... on
Raman-spectrum generation      ... on
Polarizability calculation     ... 1
Surface Crossing Hessian       ... off

The output will be reduced. Please look at the following files:
SCF program output             ... >benzen_rama_spectra.lastscf
Integral program output        ... >benzen_rama_spectra.lastint
Gradient program output        ... >benzen_rama_spectra.lastgrad
Dipole moment program output   ... >benzen_rama_spectra.lastmom
AutoCI program output          ... >benzen_rama_spectra.lastautoci

	<< Calculating on displaced geometry   1 (of  72) >>
	<< Calculating on displaced geometry   2 (of  72) >>
	<< Calculating on displaced geometry   3 (of  72) >>
	<< Calculating on displaced geometry   4 (of  72) >>
	<< Calculating on displaced geometry   5 (of  72) >>
	<< Calculating on displaced geometry   6 (of  72) >>
	<< Calculating on displaced geometry   7 (of  72) >>
	<< Calculating on displaced geometry   8 (of  72) >>
	<< Calculating on displaced geometry   9 (of  72) >>
	<< Calculating on displaced geometry  10 (of  72) >>
	<< Calculating on displaced geometry  11 (of  72) >>
	<< Calculating on displaced geometry  12 (of  72) >>
	<< Calculating on displaced geometry  13 (of  72) >>
	<< Calculating on displaced geometry  14 (of  72) >>
	<< Calculating on displaced geometry  15 (of  72) >>
	<< Calculating on displaced geometry  16 (of  72) >>
	<< Calculating on displaced geometry  17 (of  72) >>
	<< Calculating on displaced geometry  18 (of  72) >>
	<< Calculating on displaced geometry  19 (of  72) >>
	<< Calculating on displaced geometry  20 (of  72) >>
	<< Calculating on displaced geometry  21 (of  72) >>
	<< Calculating on displaced geometry  22 (of  72) >>
	<< Calculating on displaced geometry  23 (of  72) >>
	<< Calculating on displaced geometry  24 (of  72) >>
	<< Calculating on displaced geometry  25 (of  72) >>
	<< Calculating on displaced geometry  26 (of  72) >>
	<< Calculating on displaced geometry  27 (of  72) >>
	<< Calculating on displaced geometry  28 (of  72) >>
	<< Calculating on displaced geometry  29 (of  72) >>
	<< Calculating on displaced geometry  30 (of  72) >>
	<< Calculating on displaced geometry  31 (of  72) >>
	<< Calculating on displaced geometry  32 (of  72) >>
	<< Calculating on displaced geometry  33 (of  72) >>
	<< Calculating on displaced geometry  34 (of  72) >>
	<< Calculating on displaced geometry  35 (of  72) >>
	<< Calculating on displaced geometry  36 (of  72) >>
	<< Calculating on displaced geometry  37 (of  72) >>
	<< Calculating on displaced geometry  38 (of  72) >>
	<< Calculating on displaced geometry  39 (of  72) >>
	<< Calculating on displaced geometry  40 (of  72) >>
	<< Calculating on displaced geometry  41 (of  72) >>
	<< Calculating on displaced geometry  42 (of  72) >>
	<< Calculating on displaced geometry  43 (of  72) >>
	<< Calculating on displaced geometry  44 (of  72) >>
	<< Calculating on displaced geometry  45 (of  72) >>
	<< Calculating on displaced geometry  46 (of  72) >>
	<< Calculating on displaced geometry  47 (of  72) >>
	<< Calculating on displaced geometry  48 (of  72) >>
	<< Calculating on displaced geometry  49 (of  72) >>
	<< Calculating on displaced geometry  50 (of  72) >>
	<< Calculating on displaced geometry  51 (of  72) >>
	<< Calculating on displaced geometry  52 (of  72) >>
	<< Calculating on displaced geometry  53 (of  72) >>
	<< Calculating on displaced geometry  54 (of  72) >>
	<< Calculating on displaced geometry  55 (of  72) >>
	<< Calculating on displaced geometry  56 (of  72) >>
	<< Calculating on displaced geometry  57 (of  72) >>
	<< Calculating on displaced geometry  58 (of  72) >>
	<< Calculating on displaced geometry  59 (of  72) >>
	<< Calculating on displaced geometry  60 (of  72) >>
	<< Calculating on displaced geometry  61 (of  72) >>
	<< Calculating on displaced geometry  62 (of  72) >>
	<< Calculating on displaced geometry  63 (of  72) >>
	<< Calculating on displaced geometry  64 (of  72) >>
	<< Calculating on displaced geometry  65 (of  72) >>
	<< Calculating on displaced geometry  66 (of  72) >>
	<< Calculating on displaced geometry  67 (of  72) >>
	<< Calculating on displaced geometry  68 (of  72) >>
	<< Calculating on displaced geometry  69 (of  72) >>
	<< Calculating on displaced geometry  70 (of  72) >>
	<< Calculating on displaced geometry  71 (of  72) >>
	<< Calculating on displaced geometry  72 (of  72) >>

-----------------------
VIBRATIONAL FREQUENCIES
-----------------------

Scaling factor for frequencies =  1.000000000 (already applied!)

   0:         0.00 cm**-1
   1:         0.00 cm**-1
   2:         0.00 cm**-1
   3:         0.00 cm**-1
   4:         0.00 cm**-1
   5:         0.00 cm**-1
   6:       368.15 cm**-1
   7:       368.59 cm**-1
   8:       579.91 cm**-1
   9:       594.72 cm**-1
  10:       594.78 cm**-1
  11:       703.51 cm**-1
  12:       780.31 cm**-1
  13:       780.51 cm**-1
  14:       921.91 cm**-1
  15:       922.00 cm**-1
  16:       958.78 cm**-1
  17:       986.07 cm**-1
  18:      1027.09 cm**-1
  19:      1030.18 cm**-1
  20:      1030.80 cm**-1
  21:      1105.43 cm**-1
  22:      1137.90 cm**-1
  23:      1138.02 cm**-1
  24:      1297.94 cm**-1
  25:      1424.02 cm**-1
  26:      1471.56 cm**-1
  27:      1471.80 cm**-1
  28:      1643.37 cm**-1
  29:      1643.94 cm**-1
  30:      3219.84 cm**-1
  31:      3227.65 cm**-1
  32:      3229.09 cm**-1
  33:      3241.61 cm**-1
  34:      3243.43 cm**-1
  35:      3251.54 cm**-1


------------
NORMAL MODES
------------

These modes are the cartesian displacements weighted by the diagonal matrix
M(i,i)=1/sqrt(m[i]) where m[i] is the mass of the displaced atom
Thus, these vectors are normalized but *not* orthogonal

                  0          1          2          3          4          5    
      0       0.000000   0.000000   0.000000   0.000000   0.000000   0.000000
      1       0.000000   0.000000   0.000000   0.000000   0.000000   0.000000
      2       0.000000   0.000000   0.000000   0.000000   0.000000   0.000000
      3       0.000000   0.000000   0.000000   0.000000   0.000000   0.000000
      4       0.000000   0.000000   0.000000   0.000000   0.000000   0.000000
      5       0.000000   0.000000   0.000000   0.000000   0.000000   0.000000
      6       0.000000   0.000000   0.000000   0.000000   0.000000   0.000000
      7       0.000000   0.000000   0.000000   0.000000   0.000000   0.000000
      8       0.000000   0.000000   0.000000   0.000000   0.000000   0.000000
      9       0.000000   0.000000   0.000000   0.000000   0.000000   0.000000
     10       0.000000   0.000000   0.000000   0.000000   0.000000   0.000000
     11       0.000000   0.000000   0.000000   0.000000   0.000000   0.000000
     12       0.000000   0.000000   0.000000   0.000000   0.000000   0.000000
     13       0.000000   0.000000   0.000000   0.000000   0.000000   0.000000
     14       0.000000   0.000000   0.000000   0.000000   0.000000   0.000000
     15       0.000000   0.000000   0.000000   0.000000   0.000000   0.000000
     16       0.000000   0.000000   0.000000   0.000000   0.000000   0.000000
     17       0.000000   0.000000   0.000000   0.000000   0.000000   0.000000
     18       0.000000   0.000000   0.000000   0.000000   0.000000   0.000000
     19       0.000000   0.000000   0.000000   0.000000   0.000000   0.000000
     20       0.000000   0.000000   0.000000   0.000000   0.000000   0.000000
     21       0.000000   0.000000   0.000000   0.000000   0.000000   0.000000
     22       0.000000   0.000000   0.000000   0.000000   0.000000   0.000000
     23       0.000000   0.000000   0.000000   0.000000   0.000000   0.000000
     24       0.000000   0.000000   0.000000   0.000000   0.000000   0.000000
     25       0.000000   0.000000   0.000000   0.000000   0.000000   0.000000
     26       0.000000   0.000000   0.000000   0.000000   0.000000   0.000000
     27       0.000000   0.000000   0.000000   0.000000   0.000000   0.000000
     28       0.000000   0.000000   0.000000   0.000000   0.000000   0.000000
     29       0.000000   0.000000   0.000000   0.000000   0.000000   0.000000
     30       0.000000   0.000000   0.000000   0.000000   0.000000   0.000000
     31       0.000000   0.000000   0.000000   0.000000   0.000000   0.000000
     32       0.000000   0.000000   0.000000   0.000000   0.000000   0.000000
     33       0.000000   0.000000   0.000000   0.000000   0.000000   0.000000
     34       0.000000   0.000000   0.000000   0.000000   0.000000   0.000000
     35       0.000000   0.000000   0.000000   0.000000   0.000000   0.000000
                  6          7          8          9         10         11    
      0      -0.000000   0.000000  -0.000002  -0.015122   0.149195   0.000000
      1       0.000001  -0.000000   0.000001  -0.326184  -0.118678  -0.000000
      2      -0.166368  -0.144965  -0.034048   0.000000  -0.000001   0.175777
      3      -0.000000  -0.000000  -0.000002  -0.291066   0.149452   0.000001
      4       0.000000   0.000000   0.000002   0.027629  -0.187565  -0.000000
      5      -0.042561   0.216287  -0.034199  -0.000001  -0.000002  -0.175272
      6      -0.000000  -0.000000   0.000003  -0.120632  -0.265402   0.000000
      7      -0.000000  -0.000000   0.000003   0.088203  -0.224282   0.000000
      8       0.208840  -0.071368  -0.034173   0.000001  -0.000003   0.175677
      9       0.000000  -0.000000   0.000002   0.015121  -0.149193  -0.000000
     10      -0.000000  -0.000000  -0.000001   0.326185   0.118678  -0.000000
     11      -0.166368  -0.144965  -0.034044  -0.000001  -0.000002  -0.175779
     12       0.000000  -0.000000   0.000002   0.291066  -0.149453  -0.000001
     13      -0.000000   0.000000  -0.000002  -0.027631   0.187567   0.000000
     14      -0.042563   0.216287  -0.034203   0.000001  -0.000002   0.175268
     15       0.000000   0.000000  -0.000003   0.120633   0.265401  -0.000000
     16       0.000000   0.000000  -0.000003  -0.088204   0.224281  -0.000000
     17       0.208835  -0.071368  -0.034182   0.000000  -0.000001  -0.175674
     18      -0.000001   0.000000   0.000002   0.142961  -0.222088   0.000000
     19       0.000001   0.000000   0.000001  -0.304539  -0.165740  -0.000001
     20      -0.401526  -0.350645   0.407013  -0.000001   0.000020   0.367211
     21       0.000001  -0.000000  -0.000003  -0.124522   0.294622  -0.000001
     22      -0.000000   0.000000  -0.000003   0.233343   0.184351   0.000000
     23       0.505154  -0.172610   0.406554  -0.000004   0.000021  -0.367885
     24       0.000000   0.000000   0.000003   0.195727  -0.274095  -0.000001
     25      -0.000001   0.000000   0.000001  -0.253219  -0.112654   0.000001
     26      -0.102502   0.523802   0.406938  -0.000002   0.000024   0.370612
     27       0.000000   0.000000  -0.000003  -0.142961   0.222090   0.000001
     28      -0.000000  -0.000000  -0.000002   0.304541   0.165739  -0.000000
     29      -0.401526  -0.350645   0.407000  -0.000002   0.000029  -0.367190
     30      -0.000001  -0.000000   0.000003   0.124508  -0.294619  -0.000000
     31      -0.000000  -0.000000   0.000002  -0.233329  -0.184355   0.000001
     32       0.505126  -0.172606   0.406476   0.000001   0.000028   0.367881
     33      -0.000000  -0.000000  -0.000003  -0.195726   0.274094   0.000001
     34      -0.000000  -0.000000  -0.000001   0.253218   0.112655  -0.000000
     35      -0.102509   0.523798   0.406927  -0.000000   0.000024  -0.370593
                 12         13         14         15         16         17    
      0       0.000000  -0.000000   0.000000  -0.000000  -0.000000   0.037465
      1      -0.000001   0.000000  -0.000000   0.000002   0.000002  -0.288604
      2      -0.055867   0.064211  -0.077501   0.084742   0.070828   0.000001
      3       0.000001   0.000000   0.000001  -0.000000  -0.000002  -0.267746
      4      -0.000000   0.000000  -0.000000  -0.000000   0.000000   0.112694
      5      -0.083976  -0.016570   0.112246   0.024626  -0.070788   0.000001
      6       0.000000   0.000000   0.000000  -0.000002  -0.000001   0.229817
      7       0.000000   0.000000   0.000000  -0.000001  -0.000001   0.175379
      8      -0.027212  -0.080703  -0.034782  -0.109387   0.070894  -0.000002
      9      -0.000000   0.000000  -0.000000   0.000000   0.000000   0.037464
     10      -0.000000  -0.000000   0.000000   0.000001  -0.000001  -0.288604
     11       0.055861  -0.064227  -0.077510   0.084704  -0.070850   0.000001
     12      -0.000001   0.000000   0.000000   0.000002   0.000001  -0.267744
     13       0.000000  -0.000000  -0.000000  -0.000001  -0.000001   0.112696
     14       0.083970   0.016557   0.112257   0.024666   0.070770   0.000000
     15      -0.000000  -0.000001  -0.000000   0.000000   0.000002   0.229818
     16      -0.000000  -0.000000  -0.000000  -0.000000   0.000001   0.175377
     17       0.027220   0.080720  -0.034785  -0.109402  -0.070851  -0.000001
     18       0.000000   0.000001  -0.000002  -0.000001  -0.000002   0.041355
     19      -0.000001   0.000000  -0.000001   0.000003   0.000003  -0.284890
     20       0.376342  -0.429844   0.381672  -0.417864  -0.402061  -0.000010
     21      -0.000001  -0.000001  -0.000000   0.000001   0.000004   0.226791
     22       0.000000   0.000000  -0.000000  -0.000001  -0.000001   0.174458
     23      -0.184549  -0.540381   0.171191   0.539461   0.402221   0.000011
     24      -0.000000   0.000001   0.000000   0.000002   0.000001  -0.262619
     25       0.000001   0.000001   0.000001  -0.000002  -0.000002   0.116756
     26      -0.559810  -0.110813  -0.552466  -0.121481  -0.401676  -0.000003
     27       0.000000  -0.000000  -0.000001   0.000001  -0.000002   0.041346
     28       0.000000  -0.000000   0.000000   0.000000  -0.000002  -0.284890
     29      -0.376317   0.429930   0.381717  -0.417663   0.402168  -0.000006
     30       0.000000  -0.000000   0.000000  -0.000002   0.000001   0.226789
     31       0.000001   0.000001  -0.000000  -0.000001  -0.000004   0.174459
     32       0.184532   0.540352   0.171182   0.539407  -0.402459   0.000011
     33       0.000001  -0.000000   0.000001  -0.000001  -0.000003  -0.262623
     34       0.000001  -0.000000   0.000001  -0.000001  -0.000000   0.116751
     35       0.559846   0.110895  -0.552408  -0.121268   0.401756  -0.000006
                 18         19         20         21         22         23    
      0       0.035145  -0.006034   0.063395   0.009841   0.000342   0.049278
      1      -0.272449  -0.097156  -0.020543   0.001281  -0.014696   0.005981
      2       0.000003   0.000001   0.000000  -0.000000  -0.000000  -0.000000
      3       0.253192   0.084471  -0.044995  -0.003886  -0.023394   0.001340
      4      -0.105719   0.011270   0.068689  -0.008972  -0.035952  -0.028768
      5      -0.000001  -0.000000   0.000000  -0.000000  -0.000000   0.000000
      6       0.217950  -0.055707  -0.069782  -0.005950  -0.031960   0.003983
      7       0.166116   0.034831  -0.071095   0.007678   0.030565  -0.026437
      8       0.000001   0.000000   0.000000   0.000000   0.000000  -0.000000
      9      -0.034948  -0.006000   0.063423   0.009827  -0.000342  -0.049278
     10       0.271917  -0.097477  -0.020769   0.001269   0.014686  -0.005975
     11      -0.000001  -0.000000  -0.000000  -0.000000  -0.000000   0.000000
     12      -0.252945   0.084762  -0.044783  -0.003888   0.023403  -0.001344
     13       0.106000   0.011142   0.068599  -0.008976   0.035951   0.028768
     14       0.000001  -0.000000   0.000000   0.000000   0.000000  -0.000000
     15      -0.218458  -0.055458  -0.069604  -0.005951   0.031950  -0.003980
     16      -0.166182   0.035031  -0.070953   0.007692  -0.030559   0.026434
     17      -0.000003  -0.000000  -0.000000  -0.000000   0.000000  -0.000000
     18       0.039609  -0.146695   0.529755   0.405001  -0.015291   0.569523
     19      -0.300066  -0.123128   0.036868   0.051942  -0.016232   0.072729
     20      -0.000025  -0.000004  -0.000002   0.000000   0.000000   0.000000
     21      -0.241536  -0.347128  -0.008373  -0.247483   0.312222  -0.155236
     22      -0.182302   0.414672  -0.164570   0.324684  -0.398677   0.224340
     23       0.000022   0.000004   0.000003   0.000002  -0.000001   0.000001
     24      -0.278097   0.219816   0.088580  -0.157475   0.195363   0.105702
     25       0.118272   0.318538   0.402330  -0.376372   0.448111   0.284033
     26      -0.000007  -0.000001  -0.000001  -0.000002  -0.000000   0.000000
     27      -0.038467  -0.146678   0.529779   0.404878   0.015381  -0.569629
     28       0.299610  -0.123484   0.036618   0.051916   0.016232  -0.072736
     29       0.000005   0.000001   0.000002   0.000002   0.000000  -0.000000
     30       0.239843  -0.347346  -0.008570  -0.247370  -0.312309   0.155317
     31       0.183733   0.414381  -0.164725   0.324527   0.398788  -0.224448
     32      -0.000004  -0.000003  -0.000001  -0.000001  -0.000001   0.000001
     33       0.279411   0.219507   0.088350  -0.157471  -0.195372  -0.105673
     34      -0.115462   0.318705   0.402441  -0.376363  -0.448158  -0.283953
     35       0.000008   0.000002   0.000000   0.000001  -0.000000  -0.000000
                 24         25         26         27         28         29    
      0       0.059730  -0.388789   0.073069  -0.157063   0.175450   0.343906
      1       0.007656  -0.048654   0.112866   0.038864  -0.130849   0.112019
      2      -0.000000  -0.000000  -0.000000   0.000000   0.000000   0.000000
      3       0.023269   0.150035  -0.128296  -0.002752  -0.035749  -0.211671
      4       0.055661   0.361295  -0.042539  -0.161561   0.263269  -0.251768
      5       0.000000   0.000000   0.000000  -0.000000  -0.000000   0.000000
      6      -0.036612   0.239168   0.105262   0.093254   0.220053   0.156673
      7       0.048018  -0.313538  -0.136879   0.072662  -0.318163   0.067382
      8       0.000000   0.000000  -0.000000  -0.000000  -0.000000  -0.000000
      9      -0.059732  -0.388745   0.073086  -0.157050  -0.175486  -0.343930
     10      -0.007651  -0.048647   0.112865   0.038862   0.130865  -0.112010
     11       0.000000  -0.000000   0.000000   0.000000  -0.000000   0.000000
     12      -0.023274   0.150007  -0.128303  -0.002761   0.035743   0.211671
     13      -0.055658   0.361312  -0.042528  -0.161553  -0.263276   0.251773
     14      -0.000000   0.000000  -0.000000   0.000000   0.000000   0.000000
     15       0.036619   0.239189   0.105271   0.093265  -0.220013  -0.156651
     16      -0.048027  -0.313562  -0.136889   0.072650   0.318142  -0.067400
     17       0.000000  -0.000000   0.000000  -0.000000   0.000000  -0.000000
     18      -0.401099   0.109283  -0.270656   0.438157  -0.116498  -0.322592
     19      -0.051463   0.015473   0.090594   0.127754  -0.189766   0.035962
     20       0.000000   0.000002   0.000001  -0.000000  -0.000000  -0.000001
     21      -0.244450  -0.071697  -0.313088   0.115680   0.223629  -0.127308
     22       0.320820   0.094518   0.412353   0.084076  -0.259975  -0.143005
     23       0.000000   0.000000   0.000000  -0.000000  -0.000000   0.000000
     24       0.155594  -0.042717  -0.012562   0.239184   0.219400  -0.004383
     25       0.372391  -0.099299   0.290060   0.384422   0.128553  -0.299751
     26       0.000000  -0.000000   0.000000  -0.000000   0.000000  -0.000000
     27       0.401081   0.109186  -0.270682   0.438137   0.116517   0.322598
     28       0.051467   0.015464   0.090585   0.127748   0.189795  -0.035946
     29       0.000000   0.000001   0.000000  -0.000001  -0.000000  -0.000000
     30       0.244464  -0.071686  -0.313098   0.115695  -0.223646   0.127301
     31      -0.320842   0.094511   0.412372   0.084057   0.260046   0.143029
     32      -0.000000  -0.000000   0.000000   0.000000   0.000000  -0.000000
     33      -0.155589  -0.042678  -0.012548   0.239198  -0.219383   0.004388
     34      -0.372364  -0.099301   0.290067   0.384427  -0.128504   0.299769
     35      -0.000000  -0.000001   0.000000  -0.000000   0.000000   0.000001
                 30         31         32         33         34         35    
      0      -0.004003  -0.000737   0.006522  -0.005704  -0.005143   0.004936
      1       0.031562   0.021538  -0.042227   0.017038   0.049515  -0.039124
      2       0.000000  -0.000000   0.000000  -0.000000   0.000000  -0.000000
      3       0.031353  -0.022699  -0.038648   0.031219  -0.035940   0.035303
      4      -0.012953   0.007347   0.017507  -0.016055   0.012398  -0.014583
      5       0.000000   0.000000  -0.000000   0.000000  -0.000000  -0.000000
      6      -0.028409   0.040618  -0.000190   0.039042   0.009261   0.027794
      7      -0.021542   0.030888  -0.003103   0.030639   0.002509   0.021106
      8      -0.000000   0.000000  -0.000000   0.000000   0.000000  -0.000000
      9      -0.004004   0.000693  -0.006521  -0.005724  -0.005145  -0.004919
     10       0.031646  -0.021289   0.042222   0.017246   0.049546   0.039069
     11       0.000000   0.000000  -0.000000  -0.000000  -0.000000   0.000000
     12       0.031275   0.022945   0.038633   0.031034  -0.035977  -0.035356
     13      -0.012931  -0.007462  -0.017501  -0.015986   0.012412   0.014617
     14      -0.000000   0.000000   0.000000  -0.000000  -0.000000   0.000000
     15      -0.028185  -0.040614   0.000189   0.039101   0.009270  -0.027944
     16      -0.021371  -0.030884   0.003101   0.030685   0.002517  -0.021221
     17       0.000000  -0.000000   0.000000  -0.000000  -0.000000   0.000000
     18       0.048925   0.030698  -0.064454   0.028592   0.069444  -0.054402
     19      -0.381741  -0.250875   0.496079  -0.195319  -0.550853   0.424666
     20      -0.000000   0.000000   0.000000  -0.000000  -0.000000   0.000000
     21       0.337810   0.473285  -0.017439  -0.438952  -0.080270   0.299888
     22       0.257321   0.360609  -0.015408  -0.335396  -0.056591   0.228472
     23       0.000000  -0.000000  -0.000000   0.000000   0.000000  -0.000000
     24      -0.375878  -0.261748  -0.456838  -0.357514   0.390303   0.382341
     25       0.157052   0.107827   0.191866   0.152435  -0.160465  -0.159652
     26       0.000000   0.000000   0.000000   0.000000  -0.000000   0.000000
     27       0.049046  -0.030308   0.064445   0.028886   0.069486   0.054313
     28      -0.382743   0.247926  -0.496014  -0.197649  -0.551193  -0.424052
     29      -0.000000  -0.000000   0.000000  -0.000000   0.000000  -0.000000
     30       0.340403  -0.473216   0.017452  -0.438177  -0.080144  -0.298193
     31       0.259294  -0.360553   0.015418  -0.334801  -0.056495  -0.227177
     32       0.000000  -0.000000   0.000000  -0.000000  -0.000000   0.000000
     33      -0.376784   0.258820   0.457014  -0.359565   0.389896  -0.381726
     34       0.157423  -0.106591  -0.191939   0.153285  -0.160295   0.159383
     35       0.000000   0.000000   0.000000  -0.000000   0.000000   0.000000


-----------
IR SPECTRUM
-----------

 Mode   freq       eps      Int      T**2         TX        TY        TZ
       cm**-1   L/(mol*cm) km/mol    a.u.
----------------------------------------------------------------------------
  6:    368.15   0.000000    0.00  0.000000  ( 0.000000 -0.000000  0.000061)
  7:    368.59   0.000000    0.00  0.000000  (-0.000000  0.000000  0.000035)
  8:    579.91   0.015577   78.72  0.008383  (-0.000000  0.000000  0.091557)
  9:    594.72   0.000000    0.00  0.000000  (-0.000000  0.000002 -0.000000)
 10:    594.78   0.000000    0.00  0.000000  (-0.000001 -0.000002  0.000002)
 11:    703.51   0.000000    0.00  0.000000  (-0.000000  0.000000  0.000001)
 12:    780.31   0.000000    0.00  0.000000  (-0.000000  0.000000  0.000002)
 13:    780.51   0.000000    0.00  0.000000  ( 0.000000  0.000000  0.000002)
 14:    921.91   0.000000    0.00  0.000000  (-0.000000 -0.000000  0.000021)
 15:    922.00   0.000000    0.00  0.000000  (-0.000000 -0.000000  0.000020)
 16:    958.78   0.000000    0.00  0.000000  (-0.000000 -0.000000 -0.000001)
 17:    986.07   0.000003    0.01  0.000001  ( 0.000559  0.000743 -0.000000)
 18:   1027.09   0.000000    0.00  0.000000  ( 0.000004  0.000026 -0.000000)
 19:   1030.18   0.001328    6.71  0.000402  (-0.008694  0.018078 -0.000000)
 20:   1030.80   0.001133    5.73  0.000343  ( 0.016857  0.007676  0.000000)
 21:   1105.43   0.000002    0.01  0.000001  ( 0.000540 -0.000502  0.000000)
 22:   1137.90   0.000000    0.00  0.000000  ( 0.000001  0.000003 -0.000000)
 23:   1138.02   0.000000    0.00  0.000000  ( 0.000000  0.000001  0.000000)
 24:   1297.94   0.000000    0.00  0.000000  ( 0.000000  0.000002  0.000000)
 25:   1424.02   0.000000    0.00  0.000000  (-0.000037  0.000052  0.000000)
 26:   1471.56   0.001327    6.70  0.000281  (-0.010145  0.013358  0.000000)
 27:   1471.80   0.001230    6.22  0.000261  ( 0.012761  0.009899 -0.000000)
 28:   1643.37   0.000000    0.00  0.000000  ( 0.000000  0.000001  0.000000)
 29:   1643.94   0.000000    0.00  0.000000  ( 0.000000  0.000001 -0.000000)
 30:   3219.84   0.000005    0.03  0.000000  ( 0.000628  0.000322 -0.000000)
 31:   3227.65   0.000000    0.00  0.000000  ( 0.000035  0.000023 -0.000000)
 32:   3229.09   0.000000    0.00  0.000000  (-0.000003 -0.000003  0.000000)
 33:   3241.61   0.005114   25.85  0.000492  ( 0.019910  0.009795 -0.000000)
 34:   3243.43   0.006074   30.70  0.000584  (-0.010750  0.021653  0.000000)
 35:   3251.54   0.000000    0.00  0.000000  (-0.000028 -0.000018  0.000000)

* The epsilon (eps) is given for a Dirac delta lineshape.
** The dipole moment derivative (T) already includes vibrational overlap.

--------------
RAMAN SPECTRUM  
--------------

 Mode    freq (cm**-1)   Activity   Depolarization
-------------------------------------------------------------------
   6:       368.15      0.000000      0.471566
   7:       368.59      0.000000      0.281734
   8:       579.91      0.000000      0.376051
   9:       594.72      3.221352      0.749998
  10:       594.78      3.203752      0.749929
  11:       703.51      0.000079      0.750000
  12:       780.31      2.222090      0.750000
  13:       780.51      2.156996      0.750000
  14:       921.91      0.000000      0.701653
  15:       922.00      0.000000      0.706866
  16:       958.78      0.000244      0.749967
  17:       986.07      0.000000      0.066748
  18:      1027.09     53.848432      0.097083
  19:      1030.18      0.000077      0.093756
  20:      1030.80      0.000040      0.092778
  21:      1105.43      0.000000      0.575198
  22:      1137.90     11.739187      0.749990
  23:      1138.02     11.907982      0.749999
  24:      1297.94      0.000380      0.346200
  25:      1424.02      0.000000      0.338809
  26:      1471.56      0.000000      0.046007
  27:      1471.80      0.000000      0.295706
  28:      1643.37      9.306437      0.749991
  29:      1643.94      9.231897      0.749990
  30:      3219.84      0.000995      0.639303
  31:      3227.65    144.554280      0.741697
  32:      3229.09    144.750465      0.749170
  33:      3241.61      0.001418      0.271196
  34:      3243.43      0.000040      0.287299
  35:      3251.54    412.667270      0.103568

The first frequency considered to be a vibration is 6
The total number of vibrations considered is 30


--------------------------
THERMOCHEMISTRY AT 298.15K
--------------------------

Temperature         ... 298.15 K
Pressure            ... 1.00 atm
Total Mass          ... 78.11 AMU

Throughout the following assumptions are being made:
  (1) The electronic state is orbitally nondegenerate
  (2) There are no thermally accessible electronically excited states
  (3) Hindered rotations indicated by low frequency modes are not
      treated as such but are treated as vibrations and this may
      cause some error
  (4) All equations used are the standard statistical mechanics
      equations for an ideal gas
  (5) All vibrations are strictly harmonic

freq.     368.15  E(vib)   ...       0.21 
freq.     368.59  E(vib)   ...       0.21 
freq.     579.91  E(vib)   ...       0.11 
freq.     594.72  E(vib)   ...       0.10 
freq.     594.78  E(vib)   ...       0.10 
freq.     703.51  E(vib)   ...       0.07 
freq.     780.31  E(vib)   ...       0.05 
freq.     780.51  E(vib)   ...       0.05 
freq.     921.91  E(vib)   ...       0.03 
freq.     922.00  E(vib)   ...       0.03 
freq.     958.78  E(vib)   ...       0.03 
freq.     986.07  E(vib)   ...       0.02 
freq.    1027.09  E(vib)   ...       0.02 
freq.    1030.18  E(vib)   ...       0.02 
freq.    1030.80  E(vib)   ...       0.02 
freq.    1105.43  E(vib)   ...       0.02 
freq.    1137.90  E(vib)   ...       0.01 
freq.    1138.02  E(vib)   ...       0.01 
freq.    1297.94  E(vib)   ...       0.01 
freq.    1424.02  E(vib)   ...       0.00 
freq.    1471.56  E(vib)   ...       0.00 
freq.    1471.80  E(vib)   ...       0.00 
freq.    1643.37  E(vib)   ...       0.00 
freq.    1643.94  E(vib)   ...       0.00 
freq.    3219.84  E(vib)   ...       0.00 
freq.    3227.65  E(vib)   ...       0.00 
freq.    3229.09  E(vib)   ...       0.00 
freq.    3241.61  E(vib)   ...       0.00 
freq.    3243.43  E(vib)   ...       0.00 
freq.    3251.54  E(vib)   ...       0.00 

------------
INNER ENERGY
------------

The inner energy is: U= E(el) + E(ZPE) + E(vib) + E(rot) + E(trans)
    E(el)   - is the total energy from the electronic structure calculation
              = E(kin-el) + E(nuc-el) + E(el-el) + E(nuc-nuc)
    E(ZPE)  - the the zero temperature vibrational energy from the frequency calculation
    E(vib)  - the the finite temperature correction to E(ZPE) due to population
              of excited vibrational states
    E(rot)  - is the rotational thermal energy
    E(trans)- is the translational thermal energy

Summary of contributions to the inner energy U:
Electronic energy                ...   -232.07706733 Eh
Zero point energy                ...      0.09885981 Eh      62.04 kcal/mol
Thermal vibrational correction   ...      0.00184172 Eh       1.16 kcal/mol
Thermal rotational correction    ...      0.00141627 Eh       0.89 kcal/mol
Thermal translational correction ...      0.00141627 Eh       0.89 kcal/mol
-----------------------------------------------------------------------
Total thermal energy                   -231.97353326 Eh


Summary of corrections to the electronic energy:
(perhaps to be used in another calculation)
Total thermal correction                  0.00467426 Eh       2.93 kcal/mol
Non-thermal (ZPE) correction              0.09885981 Eh      62.04 kcal/mol
-----------------------------------------------------------------------
Total correction                          0.10353407 Eh      64.97 kcal/mol


--------
ENTHALPY
--------

The enthalpy is H = U + kB*T
                kB is Boltzmann's constant
Total free energy                 ...   -231.97353326 Eh 
Thermal Enthalpy correction       ...      0.00094421 Eh       0.59 kcal/mol
-----------------------------------------------------------------------
Total Enthalpy                    ...   -231.97258905 Eh


Note: Rotational entropy computed according to Herzberg 
Infrared and Raman Spectra, Chapter V,1, Van Nostrand Reinhold, 1945 
Point Group:  D6h, Symmetry Number:  12  
Rotational constants in cm-1:     0.190144     0.190142     0.095071 

Vibrational entropy computed according to the QRRHO of S. Grimme
Chem.Eur.J. 2012 18 9955


-------
ENTROPY
-------

The entropy contributions are T*S = T*(S(el)+S(vib)+S(rot)+S(trans))
     S(el)   - electronic entropy
     S(vib)  - vibrational entropy
     S(rot)  - rotational entropy
     S(trans)- translational entropy
The entropies will be listed as multiplied by the temperature to get
units of energy

Electronic entropy                ...      0.00000000 Eh      0.00 kcal/mol
Vibrational entropy               ...      0.00251780 Eh      1.58 kcal/mol
Rotational entropy                ...      0.00984282 Eh      6.18 kcal/mol
Translational entropy             ...      0.01852142 Eh     11.62 kcal/mol
-----------------------------------------------------------------------
Final entropy term                ...      0.03088204 Eh     19.38 kcal/mol

In case the symmetry of your molecule has not been determined correctly
or in case you have a reason to use a different symmetry number we print 
out the resulting rotational entropy values for sn=1,12 :
 --------------------------------------------------------
|  sn= 1 | S(rot)=       0.01218902 Eh      7.65 kcal/mol|
|  sn= 2 | S(rot)=       0.01153456 Eh      7.24 kcal/mol|
|  sn= 3 | S(rot)=       0.01115173 Eh      7.00 kcal/mol|
|  sn= 4 | S(rot)=       0.01088011 Eh      6.83 kcal/mol|
|  sn= 5 | S(rot)=       0.01066942 Eh      6.70 kcal/mol|
|  sn= 6 | S(rot)=       0.01049728 Eh      6.59 kcal/mol|
|  sn= 7 | S(rot)=       0.01035173 Eh      6.50 kcal/mol|
|  sn= 8 | S(rot)=       0.01022565 Eh      6.42 kcal/mol|
|  sn= 9 | S(rot)=       0.01011444 Eh      6.35 kcal/mol|
|  sn=10 | S(rot)=       0.01001496 Eh      6.28 kcal/mol|
|  sn=11 | S(rot)=       0.00992497 Eh      6.23 kcal/mol|
|  sn=12 | S(rot)=       0.00984282 Eh      6.18 kcal/mol|
 --------------------------------------------------------


-------------------
GIBBS FREE ENERGY
-------------------

The Gibbs free energy is G = H - T*S

Total enthalpy                    ...   -231.97258905 Eh 
Total entropy correction          ...     -0.03088204 Eh    -19.38 kcal/mol
-----------------------------------------------------------------------
Final Gibbs free energy         ...   -232.00347109 Eh

For completeness - the Gibbs free energy minus the electronic energy
G-E(el)                           ...      0.07359624 Eh     46.18 kcal/mol



Timings for individual modules:

Sum of individual times         ...     1870.754 sec (=  31.179 min)
GTO integral calculation        ...        0.436 sec (=   0.007 min)   0.0 %
SCF iterations                  ...       17.897 sec (=   0.298 min)   1.0 %
Solution of CP-SCF eqns.        ...        5.017 sec (=   0.084 min)   0.3 %
SCF Gradient evaluation         ...        9.466 sec (=   0.158 min)   0.5 %
Numerical frequency calculation ...     1837.938 sec (=  30.632 min)  98.2 %
                             ****ORCA TERMINATED NORMALLY****
TOTAL RUN TIME: 0 days 0 hours 30 minutes 55 seconds 744 msec
