
                                 *****************
                                 * O   R   C   A *
                                 *****************

           --- An Ab Initio, DFT and Semiempirical electronic structure package ---

                  #######################################################
                  #                        -***-                        #
                  #          Department of theory and spectroscopy      #
                  #               Directorship: Frank Neese             #
                  #        Max Planck Institute fuer Kohlenforschung    #
                  #                Kaiser Wilhelm Platz 1               #
                  #                 D-45470 Muelheim/Ruhr               #
                  #                      Germany                        #
                  #                                                     #
                  #                  All rights reserved                #
                  #                        -***-                        #
                  #######################################################


                         Program Version 4.2.1 -  RELEASE  -


 With contributions from (in alphabetic order):
   Daniel Aravena         : Magnetic Suceptibility
   Michael Atanasov       : Ab Initio Ligand Field Theory (pilot matlab implementation)
   Alexander A. Auer      : GIAO ZORA, VPT2
   Ute Becker             : Parallelization
   Giovanni Bistoni       : ED, misc. LED, open-shell LED, HFLD
   Martin Brehm           : Molecular dynamics
   Dmytro Bykov           : SCF Hessian
   Vijay G. Chilkuri      : MRCI spin determinant printing, contributions to CSF-ICE
   Dipayan Datta          : RHF DLPNO-CCSD density
   Achintya Kumar Dutta   : EOM-CC, STEOM-CC
   Dmitry Ganyushin       : Spin-Orbit,Spin-Spin,Magnetic field MRCI
   Miquel Garcia          : C-PCM Hessian, Gaussian charge scheme
   Yang Guo               : DLPNO-NEVPT2, CIM, IAO-localization
   Andreas Hansen         : Spin unrestricted coupled pair/coupled cluster methods
   Benjamin Helmich-Paris : CASSCF linear response (MC-RPA)
   Lee Huntington         : MR-EOM, pCC
   Robert Izsak           : Overlap fitted RIJCOSX, COSX-SCS-MP3, EOM
   Christian Kollmar      : KDIIS, OOCD, Brueckner-CCSD(T), CCSD density
   Simone Kossmann        : Meta GGA functionals, TD-DFT gradient, OOMP2, MP2 Hessian
   Martin Krupicka        : AUTO-CI
   Lucas Lang             : DCDCAS
   Dagmar Lenk            : GEPOL surface, SMD
   Dimitrios Liakos       : Extrapolation schemes; Compound Job, initial MDCI parallelization
   Dimitrios Manganas     : Further ROCIS development; embedding schemes
   Dimitrios Pantazis     : SARC Basis sets
   Taras Petrenko         : DFT Hessian,TD-DFT gradient, ASA, ECA, R-Raman, ABS, FL, XAS/XES, NRVS
   Peter Pinski           : DLPNO-MP2, DLPNO-MP2 Gradient
   Christoph Reimann      : Effective Core Potentials
   Marius Retegan         : Local ZFS, SOC
   Christoph Riplinger    : Optimizer, TS searches, QM/MM, DLPNO-CCSD(T), (RO)-DLPNO pert. Triples
   Tobias Risthaus        : Range-separated hybrids, TD-DFT gradient, RPA, STAB
   Michael Roemelt        : Original ROCIS implementation
   Masaaki Saitow         : Open-shell DLPNO-CCSD energy and density
   Barbara Sandhoefer     : DKH picture change effects
   Avijit Sen             : IP-ROCIS
   Kantharuban Sivalingam : CASSCF convergence, NEVPT2, FIC-MRCI
   Bernardo de Souza      : ESD, SOC TD-DFT
   Georgi Stoychev        : AutoAux, RI-MP2 NMR
   Willem Van den Heuvel  : Paramagnetic NMR
   Boris Wezisla          : Elementary symmetry handling
   Frank Wennmohs         : Technical directorship


 We gratefully acknowledge several colleagues who have allowed us to
 interface, adapt or use parts of their codes:
   Stefan Grimme, W. Hujo, H. Kruse,             : VdW corrections, initial TS optimization,
                  C. Bannwarth                     DFT functionals, gCP, sTDA/sTD-DF
   Ed Valeev, F. Pavosevic, A. Kumar             : LibInt (2-el integral package), F12 methods
   Garnet Chan, S. Sharma, J. Yang, R. Olivares  : DMRG
   Ulf Ekstrom                                   : XCFun DFT Library
   Mihaly Kallay                                 : mrcc  (arbitrary order and MRCC methods)
   Andreas Klamt, Michael Diedenhofen            : otool_cosmo (COSMO solvation model)
   Jiri Pittner, Ondrej Demel                    : Mk-CCSD
   Frank Weinhold                                : gennbo (NPA and NBO analysis)
   Christopher J. Cramer and Donald G. Truhlar   : smd solvation model
   Lars Goerigk                                  : TD-DFT with DH, B97 family of functionals
   V. Asgeirsson, H. Jonsson                     : NEB implementation
   FAccTs GmbH                                   : IRC, NEB, NEB-TS, Multilevel, MM, QM/MM, CI optimization
   S Lehtola, MJT Oliveira, MAL Marques          : LibXC Library


 Your calculation uses the libint2 library for the computation of 2-el integrals
 For citations please refer to: http://libint.valeyev.net

 Your ORCA version has been built with support for libXC version: 4.2.3
 For citations please refer to: https://tddft.org/programs/libxc/

 This ORCA versions uses:
   CBLAS   interface :  Fast vector & matrix operations
   LAPACKE interface :  Fast linear algebra routines


Your calculation utilizes the atom-pairwise dispersion correction
based on tight binding partial charges (D4)
Cite in your paper:
E.Caldeweyher, C.Bannwarth, S.Grimme, J.Chem.Phys., (2017), 147, 034112.
E.Caldeweyher, S.Ehlert, A.Hansen, H.Neugebauer, S.Grimme, J.Chem.Phys., (2018), in progress.
   

----- Orbital basis set information -----
Your calculation utilizes the basis: def2-SVP
   F. Weigend and R. Ahlrichs, Phys. Chem. Chem. Phys. 7, 3297 (2005).

================================================================================
                                        WARNINGS
                       Please study these warnings very carefully!
================================================================================


WARNING: Geometry Optimization
  ===> : Switching off AutoStart
         For restart on a previous wavefunction, please use MOREAD

INFO   : the flag for use of LIBINT has been found!

================================================================================
                                       INPUT FILE
================================================================================
NAME = products_optfreq.inp
|  1> !B3LYP DEF2-SVP D4 OPT FREQ
|  2> 
|  3> * xyz 0 1
|  4> C         -6.23762        0.35965       -0.63275
|  5> C         -6.48962        0.09884       -2.01596
|  6> C         -6.18682       -1.18758       -2.51813
|  7> C         -5.65698       -2.18076       -1.69554
|  8> C         -5.41512       -1.91852       -0.35206
|  9> C         -5.70191       -0.66169        0.17576
| 10> C         -6.51822        1.68942        0.01946
| 11> H         -5.91490        2.48490       -0.46570
| 12> H         -6.25418        1.68863        1.09864
| 13> H         -7.60001        1.92723       -0.05381
| 14> H         -6.36066       -1.43123       -3.55847
| 15> H         -5.43325       -3.15828       -2.10323
| 16> H         -5.00368       -2.69178        0.28398
| 17> H         -5.50252       -0.48784        1.22621
| 18> N         -7.03409        1.08043       -2.91427
| 19> O         -7.22324        0.80345       -4.06084
| 20> O         -7.33652        2.29459       -2.51087
| 21> **                         ****END OF INPUT****
================================================================================

                       *****************************
                       * Geometry Optimization Run *
                       *****************************

Geometry optimization settings:
Update method            Update   .... BFGS
Choice of coordinates    CoordSys .... Z-matrix Internals
Initial Hessian          InHess   .... Almoef's Model

Convergence Tolerances:
Energy Change            TolE     ....  5.0000e-06 Eh
Max. Gradient            TolMAXG  ....  3.0000e-04 Eh/bohr
RMS Gradient             TolRMSG  ....  1.0000e-04 Eh/bohr
Max. Displacement        TolMAXD  ....  4.0000e-03 bohr
RMS Displacement         TolRMSD  ....  2.0000e-03 bohr
Strict Convergence                ....  False
------------------------------------------------------------------------------
                        ORCA OPTIMIZATION COORDINATE SETUP
------------------------------------------------------------------------------

The optimization will be done in new redundant internal coordinates
Making redundant internal coordinates   ...  (new redundants) done
Evaluating the initial hessian          ...  (Almloef) done
Evaluating the coordinates              ...  done
Calculating the B-matrix                .... done
Calculating the G-matrix                .... done
Diagonalizing the G-matrix              .... done
The first mode is                       ....   33
The number of degrees of freedom        ....   45

    -----------------------------------------------------------------
                    Redundant Internal Coordinates


    -----------------------------------------------------------------
         Definition                    Initial Value    Approx d2E/dq
    -----------------------------------------------------------------
      1. B(C   1,C   0)                  1.4300         0.539485   
      2. B(C   2,C   1)                  1.4138         0.572557   
      3. B(C   3,C   2)                  1.3942         0.615232   
      4. B(C   4,C   3)                  1.3900         0.624710   
      5. B(C   5,C   4)                  1.3930         0.617936   
      6. B(C   5,C   0)                  1.4085         0.583793   
      7. B(C   6,C   0)                  1.5074         0.405841   
      8. B(H   7,C   6)                  1.1100         0.334556   
      9. B(H   8,C   6)                  1.1110         0.333350   
     10. B(H   9,C   6)                  1.1100         0.334540   
     11. B(H  10,C   2)                  1.0825         0.370105   
     12. B(H  11,C   3)                  1.0825         0.370156   
     13. B(H  12,C   4)                  1.0825         0.370188   
     14. B(H  13,C   5)                  1.0832         0.369144   
     15. B(N  14,C   1)                  1.4377         0.469681   
     16. B(O  15,N  14)                  1.1946         1.027372   
     17. B(O  16,N  14)                  1.3147         0.660972   
     18. A(C   5,C   0,C   6)          117.5231         0.398267   
     19. A(C   1,C   0,C   5)          119.3428         0.418848   
     20. A(C   1,C   0,C   6)          123.1341         0.392791   
     21. A(C   2,C   1,N  14)          118.7135         0.404642   
     22. A(C   0,C   1,C   2)          118.1513         0.417400   
     23. A(C   0,C   1,N  14)          123.1351         0.400420   
     24. A(C   1,C   2,H  10)          120.7810         0.349809   
     25. A(C   3,C   2,H  10)          117.8853         0.354087   
     26. A(C   1,C   2,C   3)          121.3337         0.427313   
     27. A(C   2,C   3,C   4)          120.1310         0.434054   
     28. A(C   4,C   3,H  11)          119.8944         0.355015   
     29. A(C   2,C   3,H  11)          119.9746         0.354096   
     30. A(C   3,C   4,C   5)          120.0403         0.434397   
     31. A(C   5,C   4,H  12)          120.0083         0.354364   
     32. A(C   3,C   4,H  12)          119.9514         0.355020   
     33. A(C   0,C   5,C   4)          121.0009         0.429141   
     34. A(C   4,C   5,H  13)          118.3164         0.354195   
     35. A(C   0,C   5,H  13)          120.6827         0.350805   
     36. A(H   8,C   6,H   9)          107.2101         0.284066   
     37. A(H   7,C   6,H   9)          110.3227         0.284225   
     38. A(C   0,C   6,H   9)          109.9884         0.324810   
     39. A(H   7,C   6,H   8)          107.2107         0.284068   
     40. A(C   0,C   6,H   8)          112.0488         0.324620   
     41. A(C   0,C   6,H   7)          109.9920         0.324813   
     42. A(O  15,N  14,O  16)          118.1776         0.468611   
     43. A(C   1,N  14,O  16)          121.7323         0.409672   
     44. A(C   1,N  14,O  15)          120.0901         0.443336   
     45. D(N  14,C   1,C   0,C   6)      0.0059         0.019885   
     46. D(C   2,C   1,C   0,C   6)   -179.9936         0.019885   
     47. D(C   2,C   1,C   0,C   5)      0.0026         0.019885   
     48. D(N  14,C   1,C   0,C   5)   -179.9978         0.019885   
     49. D(C   3,C   2,C   1,C   0)     -0.0029         0.022496   
     50. D(H  10,C   2,C   1,N  14)     -0.0006         0.022496   
     51. D(C   3,C   2,C   1,N  14)    179.9976         0.022496   
     52. D(H  10,C   2,C   1,C   0)    179.9990         0.022496   
     53. D(H  11,C   3,C   2,H  10)     -0.0004         0.026168   
     54. D(H  11,C   3,C   2,C   1)   -179.9986         0.026168   
     55. D(C   4,C   3,C   2,H  10)    179.9989         0.026168   
     56. D(C   4,C   3,C   2,C   1)      0.0007         0.026168   
     57. D(C   5,C   4,C   3,H  11)   -179.9990         0.027030   
     58. D(H  12,C   4,C   3,C   2)    180.0000         0.027030   
     59. D(C   5,C   4,C   3,C   2)      0.0017         0.027030   
     60. D(H  12,C   4,C   3,H  11)     -0.0007         0.027030   
     61. D(H  13,C   5,C   4,H  12)     -0.0005         0.026412   
     62. D(C   0,C   5,C   4,H  12)    179.9998         0.026412   
     63. D(C   0,C   5,C   4,C   3)     -0.0019         0.026412   
     64. D(H  13,C   5,C   0,C   6)     -0.0036         0.023430   
     65. D(H  13,C   5,C   0,C   1)    180.0000         0.023430   
     66. D(H  13,C   5,C   4,C   3)    179.9978         0.026412   
     67. D(C   4,C   5,C   0,C   6)    179.9961         0.023430   
     68. D(C   4,C   5,C   0,C   1)     -0.0003         0.023430   
     69. D(H   9,C   6,C   0,C   5)   -119.1496         0.012208   
     70. D(H   9,C   6,C   0,C   1)     60.8467         0.012208   
     71. D(H   8,C   6,C   0,C   5)     -0.0056         0.012208   
     72. D(H   8,C   6,C   0,C   1)    179.9907         0.012208   
     73. D(H   7,C   6,C   0,C   5)    119.1416         0.012208   
     74. D(H   7,C   6,C   0,C   1)    -60.8621         0.012208   
     75. D(O  15,N  14,C   1,C   0)   -179.9808         0.017388   
     76. D(O  16,N  14,C   1,C   2)   -179.9707         0.017388   
     77. D(O  16,N  14,C   1,C   0)      0.0298         0.017388   
     78. D(O  15,N  14,C   1,C   2)      0.0188         0.017388   
    -----------------------------------------------------------------

Number of atoms                         .... 17
Number of degrees of freedom            .... 78

         *************************************************************
         *                GEOMETRY OPTIMIZATION CYCLE   1            *
         *************************************************************
---------------------------------
CARTESIAN COORDINATES (ANGSTROEM)
---------------------------------
  C     -6.237620    0.359650   -0.632750
  C     -6.489620    0.098840   -2.015960
  C     -6.186820   -1.187580   -2.518130
  C     -5.656980   -2.180760   -1.695540
  C     -5.415120   -1.918520   -0.352060
  C     -5.701910   -0.661690    0.175760
  C     -6.518220    1.689420    0.019460
  H     -5.914900    2.484900   -0.465700
  H     -6.254180    1.688630    1.098640
  H     -7.600010    1.927230   -0.053810
  H     -6.360660   -1.431230   -3.558470
  H     -5.433250   -3.158280   -2.103230
  H     -5.003680   -2.691780    0.283980
  H     -5.502520   -0.487840    1.226210
  N     -7.034090    1.080430   -2.914270
  O     -7.223240    0.803450   -4.060840
  O     -7.336520    2.294590   -2.510870

----------------------------
CARTESIAN COORDINATES (A.U.)
----------------------------
  NO LB      ZA    FRAG     MASS         X           Y           Z
   0 C     6.0000    0    12.011  -11.787394    0.679640   -1.195724
   1 C     6.0000    0    12.011  -12.263605    0.186781   -3.809612
   2 C     6.0000    0    12.011  -11.691395   -2.244201   -4.758576
   3 C     6.0000    0    12.011  -10.690143   -4.121039   -3.204106
   4 C     6.0000    0    12.011  -10.233094   -3.625477   -0.665297
   5 C     6.0000    0    12.011  -10.775048   -1.250413    0.332138
   6 C     6.0000    0    12.011  -12.317651    3.192541    0.036774
   7 H     1.0000    0     1.008  -11.177541    4.695780   -0.880045
   8 H     1.0000    0     1.008  -11.818687    3.191048    2.076129
   9 H     1.0000    0     1.008  -14.361938    3.641937   -0.101686
  10 H     1.0000    0     1.008  -12.019905   -2.704633   -6.724534
  11 H     1.0000    0     1.008  -10.267355   -5.968284   -3.974529
  12 H     1.0000    0     1.008   -9.455585   -5.086727    0.536644
  13 H     1.0000    0     1.008  -10.398256   -0.921884    2.317201
  14 N     7.0000    0    14.007  -13.292504    2.041717   -5.507172
  15 O     8.0000    0    15.999  -13.649945    1.518300   -7.673875
  16 O     8.0000    0    15.999  -13.864014    4.336147   -4.744857

--------------------------------
INTERNAL COORDINATES (ANGSTROEM)
--------------------------------
 C      0   0   0     0.000000000000     0.00000000     0.00000000
 C      1   0   0     1.429963552053     0.00000000     0.00000000
 C      2   1   0     1.413767648979   118.15133708     0.00000000
 C      3   2   1     1.394199141479   121.33374389     0.00000000
 C      4   3   2     1.390037620930   120.13097799     0.00000000
 C      5   4   3     1.393005421885   120.04028177     0.00000000
 C      1   2   3     1.507449003118   123.13407367   180.00640584
 H      7   1   2     1.110028683593   109.99203328   299.13786883
 H      7   1   2     1.111011799262   112.04882767   179.99070628
 H      7   1   2     1.110041302430   109.98843720    60.84665618
 H      3   2   1     1.082540061014   120.78099208   179.99898747
 H      4   3   2     1.082502470852   119.97460827   180.00140264
 H      5   4   3     1.082478998780   119.95142309   179.99998672
 H      6   5   4     1.083247615783   118.31641295   179.99782064
 N      2   1   3     1.437681246000   123.13512421   179.99954146
 O     15   2   1     1.194620612496   120.09014867   180.01922937
 O     15   2   1     1.314678656745   121.73225063     0.02980406

---------------------------
INTERNAL COORDINATES (A.U.)
---------------------------
 C      0   0   0     0.000000000000     0.00000000     0.00000000
 C      1   0   0     2.702239494869     0.00000000     0.00000000
 C      2   1   0     2.671633673568   118.15133708     0.00000000
 C      3   2   1     2.634654553543   121.33374389     0.00000000
 C      4   3   2     2.626790419405   120.13097799     0.00000000
 C      5   4   3     2.632398750429   120.04028177     0.00000000
 C      1   2   3     2.848665776745   123.13407367   180.00640584
 H      7   1   2     2.097650212789   109.99203328   299.13786883
 H      7   1   2     2.099508032161   112.04882767   179.99070628
 H      7   1   2     2.097674058934   109.98843720    60.84665618
 H      3   2   1     2.045704244315   120.78099208   179.99898747
 H      4   3   2     2.045633209203   119.97460827   180.00140264
 H      5   4   3     2.045588853416   119.95142309   179.99998672
 H      6   5   4     2.047041329053   118.31641295   179.99782064
 N      2   1   3     2.716823822815   123.13512421   179.99954146
 O     15   2   1     2.257505791554   120.09014867   180.01922937
 O     15   2   1     2.484382615359   121.73225063     0.02980406

---------------------
BASIS SET INFORMATION
---------------------
There are 4 groups of distinct atoms

 Group   1 Type C   : 7s4p1d contracted to 3s2p1d pattern {511/31/1}
 Group   2 Type H   : 4s1p contracted to 2s1p pattern {31/1}
 Group   3 Type N   : 7s4p1d contracted to 3s2p1d pattern {511/31/1}
 Group   4 Type O   : 7s4p1d contracted to 3s2p1d pattern {511/31/1}

Atom   0C    basis set group =>   1
Atom   1C    basis set group =>   1
Atom   2C    basis set group =>   1
Atom   3C    basis set group =>   1
Atom   4C    basis set group =>   1
Atom   5C    basis set group =>   1
Atom   6C    basis set group =>   1
Atom   7H    basis set group =>   2
Atom   8H    basis set group =>   2
Atom   9H    basis set group =>   2
Atom  10H    basis set group =>   2
Atom  11H    basis set group =>   2
Atom  12H    basis set group =>   2
Atom  13H    basis set group =>   2
Atom  14N    basis set group =>   3
Atom  15O    basis set group =>   4
Atom  16O    basis set group =>   4
------------------------------------------------------------------------------
                           ORCA GTO INTEGRAL CALCULATION
------------------------------------------------------------------------------

                         BASIS SET STATISTICS AND STARTUP INFO

 # of primitive gaussian shells          ...  155
 # of primitive gaussian functions       ...  289
 # of contracted shells                  ...   81
 # of contracted basis functions         ...  175
 Highest angular momentum                ...    2
 Maximum contraction depth               ...    5
 Integral package used                   ... LIBINT
 Integral threshhold            Thresh   ...  2.500e-11
 Primitive cut-off              TCut     ...  2.500e-12


------------------------------ INTEGRAL EVALUATION ----------------------------


 * One electron integrals 
 Pre-screening matrix                    ... done
 Shell pair data                         ... done (   0.002 sec)

Timings:
 Total evaluation time               ...     0.002 sec (   0.000 min)
 One electron matrix time            ...     0.045 sec (   0.001 min) =2250.0%
 Schwartz matrix evaluation time     ...     0.156 sec (   0.003 min) =7800.0%

-------------------------------------------------------------------------------
                                 ORCA SCF
-------------------------------------------------------------------------------

------------
SCF SETTINGS
------------
Hamiltonian:
 Density Functional     Method          .... DFT(GTOs)
 Exchange Functional    Exchange        .... B88
   X-Alpha parameter    XAlpha          ....  0.666667
   Becke's b parameter  XBeta           ....  0.004200
 Correlation Functional Correlation     .... LYP
 LDA part of GGA corr.  LDAOpt          .... VWN-5
 Gradients option       PostSCFGGA      .... off
 Hybrid DFT is turned on
   Fraction HF Exchange ScalHFX         ....  0.200000
   Scaling of DF-GGA-X  ScalDFX         ....  0.720000
   Scaling of DF-GGA-C  ScalDFC         ....  0.810000
   Scaling of DF-LDA-C  ScalLDAC        ....  1.000000
   Perturbative correction              ....  0.000000
   Density functional embedding theory  .... OFF
   NL short-range parameter             ....  4.800000


General Settings:
 Integral files         IntName         .... products_optfreq
 Hartree-Fock type      HFTyp           .... RHF
 Total Charge           Charge          ....    0
 Multiplicity           Mult            ....    1
 Number of Electrons    NEL             ....   72
 Basis Dimension        Dim             ....  175
 Nuclear Repulsion      ENuc            ....    501.3413794852 Eh

Convergence Acceleration:
 DIIS                   CNVDIIS         .... on
   Start iteration      DIISMaxIt       ....    12
   Startup error        DIISStart       ....  0.200000
   # of expansion vecs  DIISMaxEq       ....     5
   Bias factor          DIISBfac        ....   1.050
   Max. coefficient     DIISMaxC        ....  10.000
 Newton-Raphson         CNVNR           .... off
 SOSCF                  CNVSOSCF        .... on
   Start iteration      SOSCFMaxIt      ....   150
   Startup grad/error   SOSCFStart      ....  0.003300
 Level Shifting         CNVShift        .... on
   Level shift para.    LevelShift      ....    0.2500
   Turn off err/grad.   ShiftErr        ....    0.0010
 Zerner damping         CNVZerner       .... off
 Static damping         CNVDamp         .... on
   Fraction old density DampFac         ....    0.7000
   Max. Damping (<1)    DampMax         ....    0.9800
   Min. Damping (>=0)   DampMin         ....    0.0000
   Turn off err/grad.   DampErr         ....    0.1000
 Fernandez-Rico         CNVRico         .... off

SCF Procedure:
 Maximum # iterations   MaxIter         ....   125
 SCF integral mode      SCFMode         .... Direct
   Integral package                     .... LIBINT
 Reset frequency        DirectResetFreq ....    20
 Integral Threshold     Thresh          ....  2.500e-11 Eh
 Primitive CutOff       TCut            ....  2.500e-12 Eh

Convergence Tolerance:
 Convergence Check Mode ConvCheckMode   .... Total+1el-Energy
 Convergence forced     ConvForced      .... 0
 Energy Change          TolE            ....  1.000e-08 Eh
 1-El. energy change                    ....  1.000e-05 Eh
 Orbital Gradient       TolG            ....  1.000e-05
 Orbital Rotation angle TolX            ....  1.000e-05
 DIIS Error             TolErr          ....  5.000e-07


Diagonalization of the overlap matrix:
Smallest eigenvalue                        ... 2.536e-04
Time for diagonalization                   ...    0.012 sec
Threshold for overlap eigenvalues          ... 1.000e-08
Number of eigenvalues below threshold      ... 0
Time for construction of square roots      ...    0.006 sec
Total time needed                          ...    0.018 sec

-------------------
DFT GRID GENERATION
-------------------

General Integration Accuracy     IntAcc      ...  4.340
Radial Grid Type                 RadialGrid  ... Gauss-Chebyshev
Angular Grid (max. acc.)         AngularGrid ... Lebedev-110
Angular grid pruning method      GridPruning ... 3 (G Style)
Weight generation scheme         WeightScheme... Becke
Basis function cutoff            BFCut       ...    1.0000e-11
Integration weight cutoff        WCut        ...    1.0000e-14
Grids for H and He will be reduced by one unit

# of grid points (after initial pruning)     ...  22284 (   0.0 sec)
# of grid points (after weights+screening)   ...  20609 (   0.1 sec)
nearest neighbour list constructed           ...    0.0 sec
Grid point re-assignment to atoms done       ...    0.0 sec
Grid point division into batches done        ...    0.1 sec
Reduced shell lists constructed in    0.6 sec

Total number of grid points                  ...    20609
Total number of batches                      ...      332
Average number of points per batch           ...       62
Average number of grid points per atom       ...     1212
Average number of shells per batch           ...    55.68 (68.74%)
Average number of basis functions per batch  ...   118.54 (67.74%)
Average number of large shells per batch     ...    43.37 (77.89%)
Average number of large basis fcns per batch ...    90.98 (76.75%)
Maximum spatial batch extension              ...  20.78, 25.12, 19.42 au
Average spatial batch extension              ...   4.36,  3.88,  3.63 au

Time for grid setup =    0.760 sec

------------------------------
INITIAL GUESS: MODEL POTENTIAL
------------------------------
Loading Hartree-Fock densities                     ... done
Calculating cut-offs                               ... done
Setting up the integral package                    ... done
Initializing the effective Hamiltonian             ... done
Starting the Coulomb interaction                   ... done (   0.6 sec)
Reading the grid                                   ... done
Mapping shells                                     ... done
Starting the XC term evaluation                    ... done (   0.9 sec)
  promolecular density results
     # of electrons  =     71.993822335
     EX              =    -60.987239496
     EC              =     -2.466334829
     EX+EC           =    -63.453574324
Transforming the Hamiltonian                       ... done (   0.0 sec)
Diagonalizing the Hamiltonian                      ... done (   0.0 sec)
Back transforming the eigenvectors                 ... done (   0.0 sec)
Now organizing SCF variables                       ... done
                      ------------------
                      INITIAL GUESS DONE (   2.9 sec)
                      ------------------
--------------
SCF ITERATIONS
--------------
ITER       Energy         Delta-E        Max-DP      RMS-DP      [F,P]     Damp
               ***  Starting incremental Fock matrix formation  ***
  0   -475.1499648593   0.000000000000 0.09395013  0.00292963  0.2472443 0.7000
  1   -475.2890394399  -0.139074580567 0.04661835  0.00178169  0.0827608 0.7000
                               ***Turning on DIIS***
  2   -475.3345886187  -0.045549178798 0.06753661  0.00290542  0.0334244 0.0000
  3   -475.4213903234  -0.086801704771 0.03418405  0.00107509  0.0438302 0.0000
  4   -475.4334908530  -0.012100529528 0.01846917  0.00040586  0.0287260 0.0000
  5   -475.4354340822  -0.001943229220 0.00508023  0.00014275  0.0048064 0.0000
                      *** Initiating the SOSCF procedure ***
                           *** Shutting down DIIS ***
                      *** Re-Reading the Fockian *** 
                      *** Removing any level shift *** 
ITER      Energy       Delta-E        Grad      Rot      Max-DP    RMS-DP
  6   -475.43548231  -0.0000482274  0.000567  0.000567  0.002150  0.000056
               *** Restarting incremental Fock matrix formation ***
  7   -475.43550173  -0.0000194164  0.000365  0.001858  0.002453  0.000040
  8   -475.43549295   0.0000087807  0.001250  0.001691  0.001740  0.000028
  9   -475.43550338  -0.0000104376  0.000167  0.000813  0.000903  0.000020
 10   -475.43550175   0.0000016304  0.000397  0.000493  0.000586  0.000013
 11   -475.43550391  -0.0000021581  0.000037  0.000118  0.000126  0.000004
 12   -475.43550387   0.0000000399  0.000050  0.000088  0.000065  0.000002
 13   -475.43550393  -0.0000000621  0.000006  0.000021  0.000028  0.000001
 14   -475.43550393   0.0000000018  0.000010  0.000014  0.000016  0.000000
                  ***Gradient check signals convergence***
              ***Rediagonalizing the Fockian in SOSCF/NRSCF***

               *****************************************************
               *                     SUCCESS                       *
               *           SCF CONVERGED AFTER  15 CYCLES          *
               *****************************************************

Setting up the final grid:

General Integration Accuracy     IntAcc      ...  4.670
Radial Grid Type                 RadialGrid  ... Gauss-Chebyshev
Angular Grid (max. acc.)         AngularGrid ... Lebedev-302
Angular grid pruning method      GridPruning ... 3 (G Style)
Weight generation scheme         WeightScheme... Becke
Basis function cutoff            BFCut       ...    1.0000e-11
Integration weight cutoff        WCut        ...    1.0000e-14
Grids for H and He will be reduced by one unit

# of grid points (after initial pruning)     ...  85878 (   0.0 sec)
# of grid points (after weights+screening)   ...  78301 (   0.3 sec)
nearest neighbour list constructed           ...    0.0 sec
Grid point re-assignment to atoms done       ...    0.0 sec
Grid point division into batches done        ...    0.5 sec
Reduced shell lists constructed in    2.0 sec

Total number of grid points                  ...    78301
Total number of batches                      ...     1234
Average number of points per batch           ...       63
Average number of grid points per atom       ...     4606
Average number of shells per batch           ...    50.81 (62.73%)
Average number of basis functions per batch  ...   107.26 (61.29%)
Average number of large shells per batch     ...    38.69 (76.14%)
Average number of large basis fcns per batch ...    80.39 (74.95%)
Maximum spatial batch extension              ...  21.33, 20.29, 17.83 au
Average spatial batch extension              ...   2.60,  2.50,  2.43 au

Final grid set up in    2.4 sec
Final integration                            ... done (   1.9 sec)
Change in XC energy                          ...    -0.000285560
Integrated number of electrons               ...    71.999949708
Previous integrated no of electrons          ...    71.997975836

----------------
TOTAL SCF ENERGY
----------------

Total Energy       :         -475.43578949 Eh          -12937.26555 eV

Components:
Nuclear Repulsion  :          501.34137949 Eh           13642.19249 eV
Electronic Energy  :         -976.77716898 Eh          -26579.45804 eV
One Electron Energy:        -1639.18211272 Eh          -44604.41293 eV
Two Electron Energy:          662.40494374 Eh           18024.95489 eV

Virial components:
Potential Energy   :         -946.57549354 Eh          -25757.62867 eV
Kinetic Energy     :          471.13970404 Eh           12820.36312 eV
Virial Ratio       :            2.00911850


DFT components:
N(Alpha)           :       35.999974853951 electrons
N(Beta)            :       35.999974853951 electrons
N(Total)           :       71.999949707903 electrons
E(X)               :      -49.022548457104 Eh       
E(C)               :       -2.905080952893 Eh       
E(XC)              :      -51.927629409997 Eh       
DFET-embed. en.    :        0.000000000000 Eh       

---------------
SCF CONVERGENCE
---------------

  Last Energy change         ...   -2.0901e-09  Tolerance :   1.0000e-08
  Last MAX-Density change    ...    3.5896e-06  Tolerance :   1.0000e-07
  Last RMS-Density change    ...    8.4542e-08  Tolerance :   5.0000e-09
  Last Orbital Gradient      ...    6.7619e-07  Tolerance :   1.0000e-05
  Last Orbital Rotation      ...    2.3704e-06  Tolerance :   1.0000e-05

             **** THE GBW FILE WAS UPDATED (products_optfreq.gbw) ****
             **** DENSITY FILE WAS UPDATED (products_optfreq.scfp) ****
             **** ENERGY FILE WAS UPDATED (products_optfreq.en.tmp) ****
             **** THE GBW FILE WAS UPDATED (products_optfreq.gbw) ****
             **** DENSITY FILE WAS UPDATED (products_optfreq.scfp) ****
----------------
ORBITAL ENERGIES
----------------

  NO   OCC          E(Eh)            E(eV) 
   0   2.0000     -19.165585      -521.5221 
   1   2.0000     -19.140097      -520.8285 
   2   2.0000     -14.552200      -395.9855 
   3   2.0000     -10.258166      -279.1389 
   4   2.0000     -10.235115      -278.5116 
   5   2.0000     -10.222895      -278.1791 
   6   2.0000     -10.218228      -278.0521 
   7   2.0000     -10.212983      -277.9094 
   8   2.0000     -10.212807      -277.9046 
   9   2.0000     -10.194053      -277.3943 
  10   2.0000      -1.209548       -32.9135 
  11   2.0000      -1.001213       -27.2444 
  12   2.0000      -0.887293       -24.1445 
  13   2.0000      -0.812021       -22.0962 
  14   2.0000      -0.785124       -21.3643 
  15   2.0000      -0.719141       -19.5688 
  16   2.0000      -0.678862       -18.4728 
  17   2.0000      -0.617684       -16.8080 
  18   2.0000      -0.588848       -16.0234 
  19   2.0000      -0.542653       -14.7663 
  20   2.0000      -0.529625       -14.4118 
  21   2.0000      -0.510340       -13.8871 
  22   2.0000      -0.504137       -13.7183 
  23   2.0000      -0.476802       -12.9745 
  24   2.0000      -0.462780       -12.5929 
  25   2.0000      -0.431073       -11.7301 
  26   2.0000      -0.429927       -11.6989 
  27   2.0000      -0.400832       -10.9072 
  28   2.0000      -0.380556       -10.3555 
  29   2.0000      -0.375058       -10.2059 
  30   2.0000      -0.369199       -10.0464 
  31   2.0000      -0.310612        -8.4522 
  32   2.0000      -0.295123        -8.0307 
  33   2.0000      -0.286984        -7.8092 
  34   2.0000      -0.272844        -7.4245 
  35   2.0000      -0.269950        -7.3457 
  36   0.0000      -0.098797        -2.6884 
  37   0.0000      -0.031655        -0.8614 
  38   0.0000      -0.007293        -0.1984 
  39   0.0000       0.052007         1.4152 
  40   0.0000       0.075461         2.0534 
  41   0.0000       0.091934         2.5017 
  42   0.0000       0.115623         3.1463 
  43   0.0000       0.116080         3.1587 
  44   0.0000       0.125385         3.4119 
  45   0.0000       0.150157         4.0860 
  46   0.0000       0.163154         4.4397 
  47   0.0000       0.172363         4.6902 
  48   0.0000       0.216310         5.8861 
  49   0.0000       0.218178         5.9369 
  50   0.0000       0.261820         7.1245 
  51   0.0000       0.271690         7.3931 
  52   0.0000       0.283970         7.7272 
  53   0.0000       0.302235         8.2242 
  54   0.0000       0.336215         9.1489 
  55   0.0000       0.358260         9.7488 
  56   0.0000       0.390233        10.6188 
  57   0.0000       0.395254        10.7554 
  58   0.0000       0.418894        11.3987 
  59   0.0000       0.432751        11.7758 
  60   0.0000       0.433080        11.7847 
  61   0.0000       0.458914        12.4877 
  62   0.0000       0.462385        12.5821 
  63   0.0000       0.478608        13.0236 
  64   0.0000       0.491961        13.3869 
  65   0.0000       0.515692        14.0327 
  66   0.0000       0.553410        15.0590 
  67   0.0000       0.554089        15.0775 
  68   0.0000       0.580021        15.7832 
  69   0.0000       0.584817        15.9137 
  70   0.0000       0.611362        16.6360 
  71   0.0000       0.616433        16.7740 
  72   0.0000       0.622086        16.9278 
  73   0.0000       0.633984        17.2516 
  74   0.0000       0.649002        17.6602 
  75   0.0000       0.660143        17.9634 
  76   0.0000       0.667659        18.1679 
  77   0.0000       0.674656        18.3583 
  78   0.0000       0.691718        18.8226 
  79   0.0000       0.706728        19.2311 
  80   0.0000       0.713846        19.4247 
  81   0.0000       0.715622        19.4731 
  82   0.0000       0.735986        20.0272 
  83   0.0000       0.778612        21.1871 
  84   0.0000       0.790237        21.5034 
  85   0.0000       0.807021        21.9602 
  86   0.0000       0.818261        22.2660 
  87   0.0000       0.893233        24.3061 
  88   0.0000       0.898194        24.4411 
  89   0.0000       0.939992        25.5785 
  90   0.0000       0.974531        26.5183 
  91   0.0000       0.989439        26.9240 
  92   0.0000       1.003873        27.3168 
  93   0.0000       1.038050        28.2468 
  94   0.0000       1.059173        28.8216 
  95   0.0000       1.088539        29.6207 
  96   0.0000       1.128027        30.6952 
  97   0.0000       1.172231        31.8980 
  98   0.0000       1.189394        32.3651 
  99   0.0000       1.214120        33.0379 
 100   0.0000       1.216266        33.0963 
 101   0.0000       1.247829        33.9552 
 102   0.0000       1.273369        34.6501 
 103   0.0000       1.275188        34.6996 
 104   0.0000       1.297928        35.3184 
 105   0.0000       1.342674        36.5360 
 106   0.0000       1.388735        37.7894 
 107   0.0000       1.434721        39.0407 
 108   0.0000       1.477050        40.1926 
 109   0.0000       1.496896        40.7326 
 110   0.0000       1.518894        41.3312 
 111   0.0000       1.533172        41.7197 
 112   0.0000       1.558624        42.4123 
 113   0.0000       1.662798        45.2470 
 114   0.0000       1.676406        45.6173 
 115   0.0000       1.685331        45.8602 
 116   0.0000       1.716504        46.7084 
 117   0.0000       1.721637        46.8481 
 118   0.0000       1.730263        47.0828 
 119   0.0000       1.740415        47.3591 
 120   0.0000       1.768438        48.1216 
 121   0.0000       1.781217        48.4694 
 122   0.0000       1.790604        48.7248 
 123   0.0000       1.791983        48.7623 
 124   0.0000       1.810901        49.2771 
 125   0.0000       1.832523        49.8655 
 126   0.0000       1.887639        51.3653 
 127   0.0000       1.910980        52.0004 
 128   0.0000       1.931765        52.5660 
 129   0.0000       1.931952        52.5711 
 130   0.0000       1.988070        54.0981 
 131   0.0000       1.991422        54.1893 
 132   0.0000       2.022448        55.0336 
 133   0.0000       2.070350        56.3371 
 134   0.0000       2.086025        56.7636 
 135   0.0000       2.103019        57.2261 
 136   0.0000       2.117839        57.6293 
 137   0.0000       2.162270        58.8383 
 138   0.0000       2.233960        60.7891 
 139   0.0000       2.234178        60.7951 
 140   0.0000       2.258323        61.4521 
 141   0.0000       2.280296        62.0500 
 142   0.0000       2.284792        62.1724 
 143   0.0000       2.285975        62.2045 
 144   0.0000       2.338562        63.6355 
 145   0.0000       2.426882        66.0388 
 146   0.0000       2.431632        66.1681 
 147   0.0000       2.457862        66.8818 
 148   0.0000       2.468472        67.1705 
 149   0.0000       2.559326        69.6428 
 150   0.0000       2.564246        69.7767 
 151   0.0000       2.602472        70.8169 
 152   0.0000       2.604051        70.8598 
 153   0.0000       2.621538        71.3357 
 154   0.0000       2.645961        72.0003 
 155   0.0000       2.660468        72.3950 
 156   0.0000       2.706458        73.6465 
 157   0.0000       2.710648        73.7605 
 158   0.0000       2.723460        74.1091 
 159   0.0000       2.749662        74.8221 
 160   0.0000       2.784944        75.7822 
 161   0.0000       2.837075        77.2007 
 162   0.0000       2.880941        78.3944 
 163   0.0000       2.897078        78.8335 
 164   0.0000       2.955077        80.4117 
 165   0.0000       3.007387        81.8352 
 166   0.0000       3.041380        82.7602 
 167   0.0000       3.042247        82.7838 
 168   0.0000       3.099009        84.3283 
 169   0.0000       3.232271        87.9546 
 170   0.0000       3.270751        89.0017 
 171   0.0000       3.390419        92.2580 
 172   0.0000       3.569027        97.1182 
 173   0.0000       3.699880       100.6788 
 174   0.0000       3.810406       103.6864 

                    ********************************
                    * MULLIKEN POPULATION ANALYSIS *
                    ********************************

-----------------------
MULLIKEN ATOMIC CHARGES
-----------------------
   0 C :   -0.108564
   1 C :    0.159664
   2 C :   -0.013416
   3 C :    0.028693
   4 C :    0.056506
   5 C :   -0.025010
   6 C :    0.124923
   7 H :    0.041646
   8 H :   -0.002255
   9 H :    0.041897
  10 H :    0.000355
  11 H :   -0.008113
  12 H :   -0.005840
  13 H :   -0.016600
  14 N :    0.226857
  15 O :   -0.210454
  16 O :   -0.290290
Sum of atomic charges:   -0.0000000

--------------------------------
MULLIKEN REDUCED ORBITAL CHARGES
--------------------------------
  0 C s       :     3.135445  s :     3.135445
      pz      :     1.021893  p :     2.931237
      px      :     0.923752
      py      :     0.985592
      dz2     :     0.011208  d :     0.041882
      dxz     :     0.006596
      dyz     :     0.011125
      dx2y2   :     0.006263
      dxy     :     0.006691
  1 C s       :     3.029304  s :     3.029304
      pz      :     0.922375  p :     2.764200
      px      :     1.043764
      py      :     0.798060
      dz2     :     0.009286  d :     0.046832
      dxz     :     0.007537
      dyz     :     0.017041
      dx2y2   :     0.005725
      dxy     :     0.007243
  2 C s       :     3.276538  s :     3.276538
      pz      :     0.810679  p :     2.703039
      px      :     0.931197
      py      :     0.961163
      dz2     :     0.008567  d :     0.033840
      dxz     :     0.003515
      dyz     :     0.008789
      dx2y2   :     0.006493
      dxy     :     0.006476
  3 C s       :     3.154137  s :     3.154137
      pz      :     0.932192  p :     2.782255
      px      :     0.982443
      py      :     0.867620
      dz2     :     0.009722  d :     0.034914
      dxz     :     0.006001
      dyz     :     0.010947
      dx2y2   :     0.004606
      dxy     :     0.003639
  4 C s       :     3.156507  s :     3.156507
      pz      :     0.925920  p :     2.750976
      px      :     0.922308
      py      :     0.902748
      dz2     :     0.008828  d :     0.036011
      dxz     :     0.005912
      dyz     :     0.011996
      dx2y2   :     0.004278
      dxy     :     0.004998
  5 C s       :     3.230408  s :     3.230408
      pz      :     0.839462  p :     2.760717
      px      :     0.989305
      py      :     0.931950
      dz2     :     0.008871  d :     0.033886
      dxz     :     0.003489
      dyz     :     0.009913
      dx2y2   :     0.005822
      dxy     :     0.005790
  6 C s       :     2.914433  s :     2.914433
      pz      :     0.951052  p :     2.933003
      px      :     1.016433
      py      :     0.965518
      dz2     :     0.007674  d :     0.027641
      dxz     :     0.002762
      dyz     :     0.005362
      dx2y2   :     0.006775
      dxy     :     0.005068
  7 H s       :     0.934879  s :     0.934879
      pz      :     0.006963  p :     0.023475
      px      :     0.007154
      py      :     0.009359
  8 H s       :     0.979809  s :     0.979809
      pz      :     0.013264  p :     0.022446
      px      :     0.005242
      py      :     0.003940
  9 H s       :     0.934666  s :     0.934666
      pz      :     0.005175  p :     0.023437
      px      :     0.013593
      py      :     0.004670
 10 H s       :     0.976036  s :     0.976036
      pz      :     0.015055  p :     0.023609
      px      :     0.004563
      py      :     0.003991
 11 H s       :     0.984832  s :     0.984832
      pz      :     0.005127  p :     0.023280
      px      :     0.005059
      py      :     0.013095
 12 H s       :     0.982853  s :     0.982853
      pz      :     0.007523  p :     0.022987
      px      :     0.005956
      py      :     0.009509
 13 H s       :     0.993362  s :     0.993362
      pz      :     0.014479  p :     0.023238
      px      :     0.004927
      py      :     0.003833
 14 N s       :     3.312774  s :     3.312774
      pz      :     1.078656  p :     3.354495
      px      :     1.180931
      py      :     1.094909
      dz2     :     0.025031  d :     0.105874
      dxz     :     0.019777
      dyz     :     0.036379
      dx2y2   :     0.011470
      dxy     :     0.013216
 15 O s       :     3.846399  s :     3.846399
      pz      :     1.154332  p :     4.339956
      px      :     1.434759
      py      :     1.750865
      dz2     :     0.010489  d :     0.024099
      dxz     :     0.006916
      dyz     :     0.005655
      dx2y2   :     0.000417
      dxy     :     0.000622
 16 O s       :     3.902157  s :     3.902157
      pz      :     1.784129  p :     4.371424
      px      :     1.475762
      py      :     1.111533
      dz2     :     0.002060  d :     0.016709
      dxz     :     0.000683
      dyz     :     0.003900
      dx2y2   :     0.005668
      dxy     :     0.004398


                     *******************************
                     * LOEWDIN POPULATION ANALYSIS *
                     *******************************

----------------------
LOEWDIN ATOMIC CHARGES
----------------------
   0 C :    0.014300
   1 C :   -0.033218
   2 C :    0.010136
   3 C :   -0.024526
   4 C :    0.009059
   5 C :   -0.023185
   6 C :   -0.045580
   7 H :    0.043790
   8 H :    0.023157
   9 H :    0.043332
  10 H :    0.038152
  11 H :    0.032474
  12 H :    0.032364
  13 H :    0.031519
  14 N :    0.286893
  15 O :   -0.168307
  16 O :   -0.270362

-------------------------------
LOEWDIN REDUCED ORBITAL CHARGES
-------------------------------
  0 C s       :     2.867317  s :     2.867317
      pz      :     1.041938  p :     3.016008
      px      :     0.926251
      py      :     1.047819
      dz2     :     0.029483  d :     0.102375
      dxz     :     0.015260
      dyz     :     0.030747
      dx2y2   :     0.013497
      dxy     :     0.013388
  1 C s       :     2.861249  s :     2.861249
      pz      :     1.016531  p :     3.051828
      px      :     1.042628
      py      :     0.992669
      dz2     :     0.026821  d :     0.120141
      dxz     :     0.017180
      dyz     :     0.044925
      dx2y2   :     0.014563
      dxy     :     0.016652
  2 C s       :     2.866037  s :     2.866037
      pz      :     1.052340  p :     3.035929
      px      :     0.947517
      py      :     1.036073
      dz2     :     0.022670  d :     0.087898
      dxz     :     0.007707
      dyz     :     0.025260
      dx2y2   :     0.016601
      dxy     :     0.015660
  3 C s       :     2.855720  s :     2.855720
      pz      :     1.056507  p :     3.077747
      px      :     0.986051
      py      :     1.035189
      dz2     :     0.027348  d :     0.091059
      dxz     :     0.014375
      dyz     :     0.030366
      dx2y2   :     0.010761
      dxy     :     0.008208
  4 C s       :     2.861203  s :     2.861203
      pz      :     1.056187  p :     3.037090
      px      :     0.936057
      py      :     1.044846
      dz2     :     0.024510  d :     0.092648
      dxz     :     0.013412
      dyz     :     0.032644
      dx2y2   :     0.010777
      dxy     :     0.011306
  5 C s       :     2.860032  s :     2.860032
      pz      :     1.034603  p :     3.074127
      px      :     0.991691
      py      :     1.047834
      dz2     :     0.023646  d :     0.089026
      dxz     :     0.007666
      dyz     :     0.028045
      dx2y2   :     0.015461
      dxy     :     0.014208
  6 C s       :     2.841237  s :     2.841237
      pz      :     1.048625  p :     3.133052
      px      :     1.067786
      py      :     1.016641
      dz2     :     0.020274  d :     0.071291
      dxz     :     0.006411
      dyz     :     0.014150
      dx2y2   :     0.017742
      dxy     :     0.012715
  7 H s       :     0.891601  s :     0.891601
      pz      :     0.017990  p :     0.064609
      px      :     0.019443
      py      :     0.027176
  8 H s       :     0.914457  s :     0.914457
      pz      :     0.037892  p :     0.062386
      px      :     0.013389
      py      :     0.011105
  9 H s       :     0.892088  s :     0.892088
      pz      :     0.011797  p :     0.064581
      px      :     0.039689
      py      :     0.013095
 10 H s       :     0.889486  s :     0.889486
      pz      :     0.044516  p :     0.072362
      px      :     0.014362
      py      :     0.013484
 11 H s       :     0.898955  s :     0.898955
      pz      :     0.015874  p :     0.068572
      px      :     0.015495
      py      :     0.037204
 12 H s       :     0.899380  s :     0.899380
      pz      :     0.022620  p :     0.068255
      px      :     0.017685
      py      :     0.027951
 13 H s       :     0.899539  s :     0.899539
      pz      :     0.041654  p :     0.068942
      px      :     0.015321
      py      :     0.011967
 14 N s       :     3.066550  s :     3.066550
      pz      :     1.150393  p :     3.427512
      px      :     1.142428
      py      :     1.134691
      dz2     :     0.056706  d :     0.219044
      dxz     :     0.036588
      dyz     :     0.078067
      dx2y2   :     0.023771
      dxy     :     0.023911
 15 O s       :     3.599443  s :     3.599443
      pz      :     1.321975  p :     4.522428
      px      :     1.446031
      py      :     1.754422
      dz2     :     0.023782  d :     0.046436
      dxz     :     0.010757
      dyz     :     0.010201
      dx2y2   :     0.000723
      dxy     :     0.000973
 16 O s       :     3.692237  s :     3.692237
      pz      :     1.793629  p :     4.546767
      px      :     1.496224
      py      :     1.256914
      dz2     :     0.004047  d :     0.031358
      dxz     :     0.001073
      dyz     :     0.007307
      dx2y2   :     0.011811
      dxy     :     0.007120


                      *****************************
                      * MAYER POPULATION ANALYSIS *
                      *****************************

  NA   - Mulliken gross atomic population
  ZA   - Total nuclear charge
  QA   - Mulliken gross atomic charge
  VA   - Mayer's total valence
  BVA  - Mayer's bonded valence
  FA   - Mayer's free valence

  ATOM       NA         ZA         QA         VA         BVA        FA
  0 C      6.1086     6.0000    -0.1086     4.0299     4.0299     0.0000
  1 C      5.8403     6.0000     0.1597     3.7879     3.7879    -0.0000
  2 C      6.0134     6.0000    -0.0134     3.8503     3.8503    -0.0000
  3 C      5.9713     6.0000     0.0287     3.8126     3.8126     0.0000
  4 C      5.9435     6.0000     0.0565     3.7992     3.7992     0.0000
  5 C      6.0250     6.0000    -0.0250     3.8666     3.8666    -0.0000
  6 C      5.8751     6.0000     0.1249     3.9318     3.9318    -0.0000
  7 H      0.9584     1.0000     0.0416     1.0081     1.0081    -0.0000
  8 H      1.0023     1.0000    -0.0023     0.9868     0.9868    -0.0000
  9 H      0.9581     1.0000     0.0419     1.0072     1.0072    -0.0000
 10 H      0.9996     1.0000     0.0004     1.0159     1.0159     0.0000
 11 H      1.0081     1.0000    -0.0081     0.9801     0.9801     0.0000
 12 H      1.0058     1.0000    -0.0058     0.9776     0.9776     0.0000
 13 H      1.0166     1.0000    -0.0166     0.9890     0.9890    -0.0000
 14 N      6.7731     7.0000     0.2269     3.9185     3.9185    -0.0000
 15 O      8.2105     8.0000    -0.2105     2.0092     2.0092    -0.0000
 16 O      8.2903     8.0000    -0.2903     1.8777     1.8777     0.0000

  Mayer bond orders larger than 0.100000
B(  0-C ,  1-C ) :   1.3397 B(  0-C ,  5-C ) :   1.3839 B(  0-C ,  6-C ) :   1.1136 
B(  1-C ,  2-C ) :   1.3393 B(  1-C , 14-N ) :   0.9033 B(  2-C ,  3-C ) :   1.3853 
B(  2-C , 10-H ) :   0.9840 B(  3-C ,  4-C ) :   1.3527 B(  3-C , 11-H ) :   0.9859 
B(  4-C ,  5-C ) :   1.3710 B(  4-C , 12-H ) :   0.9849 B(  5-C , 13-H ) :   0.9886 
B(  6-C ,  7-H ) :   0.9330 B(  6-C ,  8-H ) :   0.9410 B(  6-C ,  9-H ) :   0.9353 
B( 14-N , 15-O ) :   1.5746 B( 14-N , 16-O ) :   1.4120 B( 15-O , 16-O ) :   0.2824 


-------
TIMINGS
-------

Total SCF time: 0 days 0 hours 2 min 23 sec 

Total time                  ....     143.330 sec
Sum of individual times     ....     141.881 sec  ( 99.0%)

Fock matrix formation       ....     136.257 sec  ( 95.1%)
  XC integration            ....      10.075 sec  (  7.4% of F)
    Basis function eval.    ....       2.975 sec  ( 29.5% of XC)
    Density eval.           ....       2.469 sec  ( 24.5% of XC)
    XC-Functional eval.     ....       0.571 sec  (  5.7% of XC)
    XC-Potential eval.      ....       3.299 sec  ( 32.7% of XC)
Diagonalization             ....       0.099 sec  (  0.1%)
Density matrix formation    ....       0.037 sec  (  0.0%)
Population analysis         ....       0.056 sec  (  0.0%)
Initial guess               ....       2.115 sec  (  1.5%)
Orbital Transformation      ....       0.000 sec  (  0.0%)
Orbital Orthonormalization  ....       0.000 sec  (  0.0%)
DIIS solution               ....       0.107 sec  (  0.1%)
SOSCF solution              ....       0.083 sec  (  0.1%)
Grid generation             ....       3.127 sec  (  2.2%)


-------------------------------------------------------------------------------
                          DFT DISPERSION CORRECTION                            
                                                                               
                                 DFTD4 V2.0                                    
-------------------------------------------------------------------------------
The B3LYP functional is recognized
Active option DFTDOPT                   ...         5   

-------------------------   ----------------
Dispersion correction           -0.029001415
-------------------------   ----------------


-------------------------   --------------------
FINAL SINGLE POINT ENERGY      -475.464790907352
-------------------------   --------------------

------------------------------------------------------------------------------
                         ORCA SCF GRADIENT CALCULATION
------------------------------------------------------------------------------

Gradient of the Kohn-Sham DFT energy:
Kohn-Sham wavefunction type      ... RKS
Hartree-Fock exchange scaling    ...    0.200
Number of operators              ...    1
Number of atoms                  ...   17
Basis set dimensions             ...  175
Integral neglect threshold       ... 2.5e-11
Integral primitive cutoff        ... 2.5e-12

Nuclear repulsion gradient       ... done
One Electron Gradient            ... done
Pre-screening matrix             ... done
Starting the two electron gradient:
Two electron gradient done
Exchange-correlation gradient    ... done
Dispersion correction            ... 

------------------- 
Dispersion Gradient 
------------------- 
   1  :    0.000047337    0.000159176    0.000408943
   2  :   -0.000106028    0.000071140   -0.000337282
   3  :    0.000060621   -0.000483466   -0.000406125
   4  :    0.000186599   -0.000637616   -0.000099685
   5  :    0.000243974   -0.000531868    0.000277905
   6  :    0.000213596   -0.000233787    0.000557004
   7  :   -0.000056647    0.000598925    0.000578963
   8  :    0.000040296    0.000205062    0.000084000
   9  :   -0.000003652    0.000132903    0.000164981
  10  :   -0.000109574    0.000155476    0.000120663
  11  :   -0.000013917   -0.000099371   -0.000191311
  12  :    0.000042302   -0.000172860   -0.000060899
  13  :    0.000070340   -0.000138680    0.000099958
  14  :    0.000060506   -0.000031294    0.000205030
  15  :   -0.000253102    0.000340708   -0.000573993
  16  :   -0.000183707    0.000150257   -0.000547458
  17  :   -0.000237782    0.000513206   -0.000278755

  |G| =    0.011578730

done

------------------
CARTESIAN GRADIENT
------------------

   1   C   :    0.002962540   -0.011162142   -0.002932508
   2   C   :   -0.013524756    0.020220971   -0.028013556
   3   C   :    0.001178800   -0.003226806    0.000547607
   4   C   :    0.003202491   -0.007840651    0.002621410
   5   C   :    0.001480975   -0.004899931   -0.000539528
   6   C   :    0.002416845    0.004383148    0.015729526
   7   C   :    0.000168157   -0.004496092   -0.005466137
   8   H   :    0.009988533    0.001899185   -0.001348294
   9   H   :   -0.000130355    0.004869093    0.006509732
  10   H   :   -0.008562972   -0.004336674    0.003348312
  11   H   :    0.002976300   -0.004109848    0.006276137
  12   H   :   -0.000845285    0.005433348    0.004087863
  13   H   :   -0.002800169    0.005152247   -0.004739441
  14   H   :    0.000479837   -0.005428708   -0.005104539
  15   N   :    0.025765621   -0.094840617   -0.022545627
  16   O   :   -0.001150958    0.025327005    0.029345616
  17   O   :   -0.023604444    0.073054381    0.002225368

Difference to translation invariance:
           :    0.0000011611   -0.0000020905    0.0000019387

Norm of the cartesian gradient     ...    0.1415188533
RMS gradient                       ...    0.0198166032
MAX gradient                       ...    0.0948406168

-------
TIMINGS
-------

Total SCF gradient time            ...       41.737 sec

One electron gradient       ....       0.344 sec  (  0.8%)
Prescreening matrices       ....       0.242 sec  (  0.6%)
Two electron gradient       ....      31.075 sec  ( 74.5%)
XC gradient                 ....       9.459 sec  ( 22.7%)
------------------------------------------------------------------------------
                         ORCA GEOMETRY RELAXATION STEP
------------------------------------------------------------------------------

Reading the OPT-File                    .... done
Getting information on internals        .... done
Copying old internal coords+grads       .... done
Making the new internal coordinates     .... (new redundants).... done
Validating the new internal coordinates .... (new redundants).... done
Calculating the B-matrix                .... done
Calculating the G,G- and P matrices     .... done
Transforming gradient to internals      .... done
Projecting the internal gradient        .... done
Number of atoms                         ....  17
Number of internal coordinates          ....  78
Current Energy                          ....  -475.464790907 Eh
Current gradient norm                   ....     0.141518853 Eh/bohr
Maximum allowed component of the step   ....  0.300
Current trust radius                    ....  0.300
Evaluating the initial hessian          ....  (Almloef) done
Projecting the Hessian                  .... done
Forming the augmented Hessian           .... done
Diagonalizing the augmented Hessian     .... done
Last element of RFO vector              ....  0.984413989
Lowest eigenvalues of augmented Hessian:
 -0.016979541  0.012208434  0.017388316  0.017388353  0.017927806
Length of the computed step             ....  0.178651164
The final length of the internal step   ....  0.178651164
Converting the step to cartesian space:
 Initial RMS(Int)=    0.0202282610
Transforming coordinates:
 Iter   0:  RMS(Cart)=    0.0372302439 RMS(Int)=    1.4228834142
 Iter   1:  RMS(Cart)=    0.0007187108 RMS(Int)=    0.0003983210
 Iter   2:  RMS(Cart)=    0.0000244777 RMS(Int)=    0.0000190133
 Iter   3:  RMS(Cart)=    0.0000005942 RMS(Int)=    0.0000004384
 Iter   4:  RMS(Cart)=    0.0000000291 RMS(Int)=    0.0000000170
done
Storing new coordinates                 .... done

                                .--------------------.
          ----------------------|Geometry convergence|-------------------------
          Item                value                   Tolerance       Converged
          ---------------------------------------------------------------------
          RMS gradient        0.0113209846            0.0001000000      NO
          MAX gradient        0.0735816740            0.0003000000      NO
          RMS step            0.0202282610            0.0020000000      NO
          MAX step            0.1085353697            0.0040000000      NO
          ........................................................
          Max(Bonds)      0.0574      Max(Angles)    3.97
          Max(Dihed)        0.78      Max(Improp)    0.00
          ---------------------------------------------------------------------

The optimization has not yet converged - more geometry cycles are needed


    ---------------------------------------------------------------------------
                         Redundant Internal Coordinates
                            (Angstroem and degrees)

        Definition                    Value    dE/dq     Step     New-Value
    ----------------------------------------------------------------------------
     1. B(C   1,C   0)                1.4300  0.010436 -0.0103    1.4197   
     2. B(C   2,C   1)                1.4138  0.010689 -0.0099    1.4038   
     3. B(C   3,C   2)                1.3942  0.005236 -0.0044    1.3898   
     4. B(C   4,C   3)                1.3900 -0.006673  0.0058    1.3959   
     5. B(C   5,C   4)                1.3930 -0.003858  0.0035    1.3965   
     6. B(C   5,C   0)                1.4085  0.005434 -0.0048    1.4037   
     7. B(C   6,C   0)                1.5074 -0.000776  0.0010    1.5084   
     8. B(H   7,C   6)                1.1100  0.007382 -0.0111    1.0989   
     9. B(H   8,C   6)                1.1110  0.006289 -0.0095    1.1015   
    10. B(H   9,C   6)                1.1100  0.007192 -0.0108    1.0992   
    11. B(H  10,C   2)                1.0825 -0.005584  0.0076    1.0902   
    12. B(H  11,C   3)                1.0825 -0.006621  0.0090    1.0916   
    13. B(H  12,C   4)                1.0825 -0.007530  0.0103    1.0928   
    14. B(H  13,C   5)                1.0832 -0.005733  0.0079    1.0911   
    15. B(N  14,C   1)                1.4377 -0.003604  0.0039    1.4416   
    16. B(O  15,N  14)                1.1946 -0.033855  0.0172    1.2118   
    17. B(O  16,N  14)                1.3147  0.073582 -0.0574    1.2572   
    18. A(C   5,C   0,C   6)          117.52 -0.006247    0.86    118.38   
    19. A(C   1,C   0,C   5)          119.34  0.011528   -1.60    117.74   
    20. A(C   1,C   0,C   6)          123.13 -0.005281    0.74    123.87   
    21. A(C   2,C   1,N  14)          118.71  0.014846   -1.94    116.77   
    22. A(C   0,C   1,C   2)          118.15 -0.017088    2.17    120.33   
    23. A(C   0,C   1,N  14)          123.14  0.002243   -0.23    122.90   
    24. A(C   1,C   2,H  10)          120.78  0.003662   -0.59    120.19   
    25. A(C   3,C   2,H  10)          117.89 -0.008257    1.26    119.14   
    26. A(C   1,C   2,C   3)          121.33  0.004595   -0.67    120.66   
    27. A(C   2,C   3,C   4)          120.13  0.003962   -0.47    119.66   
    28. A(C   4,C   3,H  11)          119.89 -0.003785    0.51    120.41   
    29. A(C   2,C   3,H  11)          119.97 -0.000177   -0.04    119.93   
    30. A(C   3,C   4,C   5)          120.04  0.000817   -0.00    120.04   
    31. A(C   5,C   4,H  12)          120.01 -0.000011   -0.06    119.95   
    32. A(C   3,C   4,H  12)          119.95 -0.000806    0.06    120.01   
    33. A(C   0,C   5,C   4)          121.00 -0.003813    0.57    121.57   
    34. A(C   4,C   5,H  13)          118.32 -0.002990    0.48    118.79   
    35. A(C   0,C   5,H  13)          120.68  0.006803   -1.05    119.64   
    36. A(H   8,C   6,H   9)          107.21 -0.003005    0.82    108.03   
    37. A(H   7,C   6,H   9)          110.32  0.007883   -1.95    108.37   
    38. A(C   0,C   6,H   9)          109.99 -0.004708    0.70    110.69   
    39. A(H   7,C   6,H   8)          107.21 -0.002877    0.78    107.99   
    40. A(C   0,C   6,H   8)          112.05  0.007808   -1.10    110.95   
    41. A(C   0,C   6,H   7)          109.99 -0.004756    0.70    110.69   
    42. A(O  15,N  14,O  16)          118.18 -0.032468    3.97    122.14   
    43. A(C   1,N  14,O  16)          121.73  0.022235   -2.83    118.90   
    44. A(C   1,N  14,O  15)          120.09  0.010233   -1.13    118.96   
    45. D(N  14,C   1,C   0,C   6)      0.01 -0.000026    0.04      0.05   
    46. D(C   2,C   1,C   0,C   6)   -179.99 -0.000021    0.03   -179.96   
    47. D(C   2,C   1,C   0,C   5)      0.00 -0.000009    0.01      0.02   
    48. D(N  14,C   1,C   0,C   5)   -180.00 -0.000014    0.02   -179.98   
    49. D(C   3,C   2,C   1,C   0)     -0.00  0.000017   -0.02     -0.03   
    50. D(H  10,C   2,C   1,N  14)     -0.00  0.000033   -0.05     -0.05   
    51. D(C   3,C   2,C   1,N  14)    180.00  0.000021   -0.03    179.97   
    52. D(H  10,C   2,C   1,C   0)    180.00  0.000028   -0.04    179.96   
    53. D(H  11,C   3,C   2,H  10)     -0.00 -0.000027    0.04      0.04   
    54. D(H  11,C   3,C   2,C   1)   -180.00 -0.000016    0.02   -179.98   
    55. D(C   4,C   3,C   2,H  10)    180.00 -0.000033    0.05    180.04   
    56. D(C   4,C   3,C   2,C   1)      0.00 -0.000022    0.03      0.03   
    57. D(C   5,C   4,C   3,H  11)   -180.00  0.000014   -0.02   -180.02   
    58. D(H  12,C   4,C   3,C   2)    180.00  0.000031   -0.04    179.96   
    59. D(C   5,C   4,C   3,C   2)      0.00  0.000021   -0.03     -0.03   
    60. D(H  12,C   4,C   3,H  11)     -0.00  0.000025   -0.03     -0.03   
    61. D(H  13,C   5,C   4,H  12)     -0.00 -0.000033    0.04      0.04   
    62. D(C   0,C   5,C   4,H  12)    180.00 -0.000024    0.03    180.03   
    63. D(C   0,C   5,C   4,C   3)     -0.00 -0.000014    0.02      0.02   
    64. D(H  13,C   5,C   0,C   6)     -0.00  0.000028   -0.04     -0.04   
    65. D(H  13,C   5,C   0,C   1)    180.00  0.000017   -0.02    179.98   
    66. D(H  13,C   5,C   4,C   3)    180.00 -0.000022    0.03    180.03   
    67. D(C   4,C   5,C   0,C   6)    180.00  0.000019   -0.03    179.97   
    68. D(C   4,C   5,C   0,C   1)     -0.00  0.000008   -0.01     -0.01   
    69. D(H   9,C   6,C   0,C   5)   -119.15  0.001849   -0.76   -119.91   
    70. D(H   9,C   6,C   0,C   1)     60.85  0.001861   -0.78     60.07   
    71. D(H   8,C   6,C   0,C   5)     -0.01 -0.000048    0.02      0.02   
    72. D(H   8,C   6,C   0,C   1)    179.99 -0.000036    0.01    180.00   
    73. D(H   7,C   6,C   0,C   5)    119.14 -0.001816    0.76    119.90   
    74. D(H   7,C   6,C   0,C   1)    -60.86 -0.001804    0.74    -60.12   
    75. D(O  15,N  14,C   1,C   0)   -179.98 -0.000021    0.03   -179.95   
    76. D(O  16,N  14,C   1,C   2)   -179.97 -0.000016    0.03   -179.94   
    77. D(O  16,N  14,C   1,C   0)      0.03 -0.000011    0.02      0.05   
    78. D(O  15,N  14,C   1,C   2)      0.02 -0.000026    0.04      0.06   
    ----------------------------------------------------------------------------

         *************************************************************
         *                GEOMETRY OPTIMIZATION CYCLE   2            *
         *************************************************************
---------------------------------
CARTESIAN COORDINATES (ANGSTROEM)
---------------------------------
  C     -6.239397    0.372692   -0.622945
  C     -6.481872    0.092328   -1.993397
  C     -6.191146   -1.176252   -2.519765
  C     -5.662422   -2.175206   -1.710938
  C     -5.418701   -1.914446   -0.361508
  C     -5.705255   -0.655172    0.169823
  C     -6.522272    1.704961    0.025417
  H     -5.940721    2.502867   -0.457037
  H     -6.255148    1.687756    1.093911
  H     -7.589205    1.957014   -0.054553
  H     -6.378876   -1.389228   -3.572323
  H     -5.440514   -3.157180   -2.132804
  H     -5.003732   -2.695739    0.279998
  H     -5.506412   -0.473234    1.227116
  N     -7.026827    1.065095   -2.907158
  O     -7.205916    0.748467   -4.063045
  O     -7.300925    2.214737   -2.478373

----------------------------
CARTESIAN COORDINATES (A.U.)
----------------------------
  NO LB      ZA    FRAG     MASS         X           Y           Z
   0 C     6.0000    0    12.011  -11.790751    0.704286   -1.177196
   1 C     6.0000    0    12.011  -12.248963    0.174475   -3.766975
   2 C     6.0000    0    12.011  -11.699571   -2.222794   -4.761666
   3 C     6.0000    0    12.011  -10.700426   -4.110544   -3.233204
   4 C     6.0000    0    12.011  -10.239861   -3.617779   -0.683152
   5 C     6.0000    0    12.011  -10.781369   -1.238096    0.320919
   6 C     6.0000    0    12.011  -12.325309    3.221910    0.048032
   7 H     1.0000    0     1.008  -11.226337    4.729733   -0.863674
   8 H     1.0000    0     1.008  -11.820516    3.189396    2.067192
   9 H     1.0000    0     1.008  -14.341519    3.698221   -0.103090
  10 H     1.0000    0     1.008  -12.054328   -2.625260   -6.750713
  11 H     1.0000    0     1.008  -10.281081   -5.966205   -4.030416
  12 H     1.0000    0     1.008   -9.455683   -5.094208    0.529120
  13 H     1.0000    0     1.008  -10.405610   -0.894282    2.318914
  14 N     7.0000    0    14.007  -13.278779    2.012737   -5.493733
  15 O     8.0000    0    15.999  -13.617207    1.414397   -7.678042
  16 O     8.0000    0    15.999  -13.796749    4.185245   -4.683445

--------------------------------
INTERNAL COORDINATES (ANGSTROEM)
--------------------------------
 C      0   0   0     0.000000000000     0.00000000     0.00000000
 C      1   0   0     1.419696064411     0.00000000     0.00000000
 C      2   1   0     1.403880611072   120.33218760     0.00000000
 C      3   2   1     1.389842139131   120.66823350   359.97357240
 C      4   3   2     1.395835101361   119.65390508     0.03057730
 C      5   4   3     1.396494583359   120.03004761   359.97492492
 C      1   2   3     1.508420731160   123.86999200   180.03926843
 H      7   1   2     1.098916222000   110.69199840   299.87878188
 H      7   1   2     1.101512682689   110.95722697   179.99617038
 H      7   1   2     1.099213992205   110.68794903    60.06585389
 H      3   2   1     1.090174289491   120.19016457   179.95946717
 H      4   3   2     1.091552411746   119.93525477   180.02234361
 H      5   4   3     1.092770602030   120.01780583   179.95895871
 H      6   5   4     1.091104649015   118.79335384   180.02696801
 N      2   1   3     1.441599967595   122.89987586   180.00781019
 O     15   2   1     1.211775163196   118.95811090   180.05343858
 O     15   2   1     1.257244208817   118.89907827     0.04828080

---------------------------
INTERNAL COORDINATES (A.U.)
---------------------------
 C      0   0   0     0.000000000000     0.00000000     0.00000000
 C      1   0   0     2.682836755142     0.00000000     0.00000000
 C      2   1   0     2.652949879647   120.33218760     0.00000000
 C      3   2   1     2.626421012340   120.66823350   359.97357240
 C      4   3   2     2.637746069687   119.65390508     0.03057730
 C      5   4   3     2.638992310054   120.03004761   359.97492492
 C      1   2   3     2.850502076621   123.86999200   180.03926843
 H      7   1   2     2.076650703703   110.69199840   299.87878188
 H      7   1   2     2.081557303322   110.95722697   179.99617038
 H      7   1   2     2.077213407843   110.68794903    60.06585389
 H      3   2   1     2.060130845380   120.19016457   179.95946717
 H      4   3   2     2.062735119022   119.93525477   180.02234361
 H      5   4   3     2.065037165037   120.01780583   179.95895871
 H      6   5   4     2.061888970088   118.79335384   180.02696801
 N      2   1   3     2.724229133425   122.89987586   180.00781019
 O     15   2   1     2.289923194328   118.95811090   180.05343858
 O     15   2   1     2.375847238122   118.89907827     0.04828080


Diagonalization of the overlap matrix:
Smallest eigenvalue                        ... 2.514e-04
Time for diagonalization                   ...    0.014 sec
Threshold for overlap eigenvalues          ... 1.000e-08
Number of eigenvalues below threshold      ... 0
Time for construction of square roots      ...    0.006 sec
Total time needed                          ...    0.020 sec

-------------------
DFT GRID GENERATION
-------------------

General Integration Accuracy     IntAcc      ...  4.340
Radial Grid Type                 RadialGrid  ... Gauss-Chebyshev
Angular Grid (max. acc.)         AngularGrid ... Lebedev-110
Angular grid pruning method      GridPruning ... 3 (G Style)
Weight generation scheme         WeightScheme... Becke
Basis function cutoff            BFCut       ...    1.0000e-11
Integration weight cutoff        WCut        ...    1.0000e-14
Grids for H and He will be reduced by one unit

# of grid points (after initial pruning)     ...  22284 (   0.0 sec)
# of grid points (after weights+screening)   ...  20610 (   0.1 sec)
nearest neighbour list constructed           ...    0.0 sec
Grid point re-assignment to atoms done       ...    0.0 sec
Grid point division into batches done        ...    0.0 sec
Reduced shell lists constructed in    0.7 sec

Total number of grid points                  ...    20610
Total number of batches                      ...      332
Average number of points per batch           ...       62
Average number of grid points per atom       ...     1212
Average number of shells per batch           ...    55.80 (68.88%)
Average number of basis functions per batch  ...   118.82 (67.90%)
Average number of large shells per batch     ...    43.69 (78.31%)
Average number of large basis fcns per batch ...    91.94 (77.38%)
Maximum spatial batch extension              ...  21.65, 20.43, 19.32 au
Average spatial batch extension              ...   4.33,  3.82,  3.60 au

Time for grid setup =    0.811 sec

--------------
SCF ITERATIONS
--------------
ITER       Energy         Delta-E        Max-DP      RMS-DP      [F,P]     Damp
               ***  Starting incremental Fock matrix formation  ***
  0   -475.4419172577   0.000000000000 0.00785336  0.00029467  0.0280366 0.7000
                      *** Initiating the SOSCF procedure ***
                      *** Re-Reading the Fockian *** 
                      *** Removing any level shift *** 
ITER      Energy       Delta-E        Grad      Rot      Max-DP    RMS-DP
  1   -475.44337996  -0.0014627008  0.002390  0.002390  0.022400  0.000840
               *** Restarting incremental Fock matrix formation ***
  2   -475.44714290  -0.0037629385  0.002011  0.009551  0.011465  0.000217
  3   -475.44703346   0.0001094320  0.006240  0.008286  0.007815  0.000151
  4   -475.44723935  -0.0002058831  0.001253  0.002863  0.003960  0.000106
  5   -475.44723108   0.0000082726  0.001549  0.002106  0.001979  0.000057
  6   -475.44726184  -0.0000307653  0.000237  0.000524  0.000903  0.000028
  7   -475.44726199  -0.0000001506  0.000247  0.000182  0.000496  0.000013
  8   -475.44726351  -0.0000015147  0.000019  0.000044  0.000098  0.000004
  9   -475.44726350   0.0000000023  0.000026  0.000031  0.000057  0.000002
 10   -475.44726353  -0.0000000268  0.000007  0.000023  0.000023  0.000001
 11   -475.44726353   0.0000000015  0.000008  0.000013  0.000013  0.000000
                  ***Gradient check signals convergence***
              ***Rediagonalizing the Fockian in SOSCF/NRSCF***

               *****************************************************
               *                     SUCCESS                       *
               *           SCF CONVERGED AFTER  12 CYCLES          *
               *****************************************************

Setting up the final grid:

General Integration Accuracy     IntAcc      ...  4.670
Radial Grid Type                 RadialGrid  ... Gauss-Chebyshev
Angular Grid (max. acc.)         AngularGrid ... Lebedev-302
Angular grid pruning method      GridPruning ... 3 (G Style)
Weight generation scheme         WeightScheme... Becke
Basis function cutoff            BFCut       ...    1.0000e-11
Integration weight cutoff        WCut        ...    1.0000e-14
Grids for H and He will be reduced by one unit

# of grid points (after initial pruning)     ...  85878 (   0.1 sec)
# of grid points (after weights+screening)   ...  78254 (   0.4 sec)
nearest neighbour list constructed           ...    0.0 sec
Grid point re-assignment to atoms done       ...    0.0 sec
Grid point division into batches done        ...    0.6 sec
Reduced shell lists constructed in    2.0 sec

Total number of grid points                  ...    78254
Total number of batches                      ...     1228
[...]
     24      -0.036141   0.175646   0.658913  -0.132618   0.012892  -0.039527
     25       0.118094  -0.531068   0.219891   0.442073  -0.067971   0.160058
     26       0.038360  -0.027400  -0.159057   0.050147  -0.034526   0.049553
     27      -0.105435   0.091155  -0.023481  -0.066629   0.006425  -0.012668
     28      -0.403522   0.210844  -0.127503  -0.239468  -0.006757  -0.112210
     29       0.012295  -0.451925  -0.475318   0.263772   0.022576  -0.040083
     30       0.053573   0.062537  -0.003395   0.088351  -0.152493  -0.018630
     31      -0.150013  -0.152785   0.000810  -0.191808   0.456475  -0.071700
     32       0.010499   0.048227   0.000357   0.101182  -0.003692  -0.174524
     33       0.041828   0.074750   0.001102   0.149444  -0.053465  -0.158608
     34      -0.058976  -0.069377   0.001138  -0.128283   0.156048   0.194133
     35       0.091983   0.211162  -0.002135   0.435902  -0.008030  -0.384768
     36       0.009227   0.002559  -0.004294   0.020950  -0.038524  -0.065061
     37      -0.048755   0.141664  -0.002501   0.176818   0.348383   0.314577
     38      -0.029271   0.202209  -0.000675   0.324629   0.314705   0.160094
     39       0.036567  -0.004888   0.006881   0.054299  -0.190472  -0.031222
     40      -0.085396   0.046498   0.002850  -0.087887   0.557028   0.191360
     41       0.034471   0.043627  -0.002240   0.103723  -0.022953   0.133922
     42      -0.202372  -0.005846  -0.001295   0.013984  -0.011961   0.002844
     43       0.356654  -0.001999  -0.000138  -0.031156   0.006994   0.099616
     44      -0.347572  -0.025706   0.000116   0.016087  -0.038048   0.139864
     45       0.066907   0.003968  -0.000001  -0.003483   0.010565  -0.017635
     46       0.052285   0.002207   0.000042  -0.001821   0.007304  -0.027211
     47       0.335371   0.018736   0.000247  -0.016368   0.051587  -0.105688
     48       0.088961  -0.001650   0.001024  -0.010903   0.001528   0.016637
     49      -0.328650   0.007007   0.000017   0.039483  -0.005897  -0.070351
     50      -0.069589   0.002333  -0.000306   0.007474  -0.001644  -0.024481
                 42         43         44         45         46         47    
      0       0.065710  -0.033156   0.000328   0.000273  -0.000376   0.000729
      1      -0.174510   0.181903  -0.000826  -0.000003   0.000918  -0.001856
      2       0.032424   0.111127   0.000291  -0.000017  -0.000404   0.000496
      3      -0.042420   0.026822  -0.000225  -0.000298  -0.000183  -0.000080
      4       0.157876  -0.249365   0.000005  -0.000134   0.000309   0.000359
      5       0.040088  -0.226415  -0.000946   0.000083  -0.000222   0.000154
      6       0.116933  -0.055647   0.000014   0.000069  -0.000003  -0.000396
      7      -0.301809   0.214262   0.000055   0.000011   0.000140  -0.001000
      8       0.068777   0.062139   0.000137  -0.000027   0.000145  -0.002926
      9      -0.089572   0.009733  -0.000019   0.000002   0.000007  -0.005177
     10       0.180869  -0.086675   0.000007   0.000002   0.000006   0.021169
     11      -0.120506  -0.077735  -0.000065  -0.000006   0.000043   0.007545
     12       0.053806  -0.021432  -0.000077   0.000027  -0.000206   0.020623
     13      -0.215402   0.175057   0.000313  -0.000018   0.000373  -0.037724
     14      -0.071389   0.149340   0.000108   0.000024  -0.000326   0.033458
     15      -0.105662   0.065753   0.000048   0.000324   0.000942  -0.011418
     16       0.312212  -0.226339  -0.001248   0.000048   0.000739  -0.009342
     17      -0.009526  -0.037675  -0.001477  -0.000522   0.004685  -0.059116
     18      -0.004262   0.006542  -0.007743   0.087565  -0.024492  -0.001160
     19       0.023596  -0.025282   0.041061   0.025018   0.042327   0.000911
     20       0.015165  -0.007509   0.029264  -0.012909  -0.080481  -0.003634
     21      -0.091850  -0.013982  -0.273892  -0.329549  -0.278293  -0.006409
     22       0.043590  -0.031295  -0.382781  -0.497558  -0.382841  -0.008189
     23      -0.055858  -0.058454   0.237298   0.299484   0.220723   0.005313
     24       0.040031   0.018768  -0.164552  -0.008961   0.188837   0.009759
     25      -0.128149  -0.069934   0.039824   0.007642  -0.041388  -0.000407
     26      -0.012189  -0.017994  -0.626871  -0.075517   0.721808   0.039787
     27       0.017886   0.003823   0.527580  -0.705488   0.385614   0.011175
     28       0.080044  -0.025458  -0.128910   0.192776  -0.090613  -0.002258
     29      -0.083097  -0.062929   0.051261  -0.070299   0.020511   0.001038
     30      -0.092220   0.106298  -0.000084   0.000053  -0.000259   0.007860
     31       0.294644  -0.225566   0.000738  -0.000002   0.000182   0.007127
     32       0.024882   0.130443   0.000658   0.000065  -0.000819   0.041275
     33       0.048485   0.048706   0.000157  -0.000065   0.000152   0.056727
     34       0.064589  -0.136577  -0.000809  -0.000019  -0.000422  -0.248671
     35       0.283340   0.014572  -0.000432  -0.000009   0.000062  -0.105514
     36       0.053353  -0.014440  -0.000504  -0.000503   0.003317  -0.242693
     37       0.050079  -0.111464   0.001194   0.000425  -0.006244   0.452572
     38       0.285159  -0.209112  -0.000457  -0.000360   0.005255  -0.381876
     39       0.132786  -0.102966   0.002547   0.000656  -0.008294   0.126085
     40      -0.342755   0.238255   0.004946   0.001025  -0.011207   0.128108
     41       0.078921  -0.099019   0.017104   0.004477  -0.048894   0.686257
     42      -0.024183  -0.019590   0.000053  -0.000090  -0.000048   0.000080
     43       0.238812   0.371591  -0.000095  -0.000067   0.000443  -0.000216
     44       0.212887   0.405375   0.000075  -0.000013   0.000409   0.000033
     45      -0.018468  -0.028067  -0.000000   0.000136  -0.000001  -0.000032
     46      -0.041388  -0.083205  -0.000078   0.000060  -0.000181   0.000074
     47      -0.127462  -0.220500  -0.000094  -0.000005  -0.000304  -0.000042
     48       0.036911   0.043347  -0.000033  -0.000325  -0.000045  -0.000018
     49      -0.158711  -0.206969  -0.000047  -0.000082  -0.000298   0.000065
     50      -0.057995  -0.095280  -0.000223   0.000112  -0.000455   0.000011
                  48         49         50    
      0      -0.000832  -0.000466   0.000107
      1       0.001961   0.000989   0.000053
      2      -0.000770  -0.000563   0.000493
      3      -0.000055  -0.000036  -0.000714
      4      -0.000273   0.000038   0.002921
      5      -0.000578  -0.000103   0.001073
      6      -0.000388   0.000807  -0.016305
      7      -0.002531   0.004079  -0.013631
      8      -0.004937   0.008712  -0.084240
      9      -0.011232   0.012483   0.004148
     10       0.047705  -0.057976  -0.014208
     11       0.018806  -0.027600  -0.002292
     12       0.015199   0.021329   0.000739
     13      -0.030832  -0.038942  -0.000860
     14       0.020537   0.034651   0.001855
     15       0.009712   0.003477   0.000225
     16       0.011629   0.006851   0.000492
     17       0.055262   0.023406   0.001585
     18       0.000844   0.000226  -0.000017
     19      -0.000640  -0.000092   0.000033
     20       0.002642   0.000806  -0.000044
     21       0.004216   0.000753   0.000011
     22       0.004969   0.000423  -0.000059
     23      -0.003890  -0.000622  -0.000007
     24      -0.006919  -0.002239   0.000120
     25      -0.000039  -0.000035  -0.000192
     26      -0.028655  -0.009280   0.000215
     27      -0.007319  -0.001088   0.000010
     28       0.001113  -0.000152  -0.000047
     29      -0.001108  -0.000207  -0.000007
     30       0.013253  -0.022481   0.184544
     31       0.012866  -0.022053   0.156306
     32       0.070793  -0.120367   0.955122
     33       0.124304  -0.147314  -0.030389
     34      -0.546309   0.652776   0.131041
     35      -0.233045   0.283335   0.053462
     36      -0.171179  -0.233189  -0.005964
     37       0.322425   0.434805   0.010782
     38      -0.265062  -0.366991  -0.009841
     39      -0.113499  -0.045905  -0.002754
     40      -0.118646  -0.050909  -0.003138
     41      -0.622322  -0.255663  -0.015507
     42      -0.000049  -0.000035  -0.000127
     43       0.000076   0.000184  -0.000551
     44      -0.000098   0.000100  -0.001252
     45      -0.000014   0.000062  -0.000251
     46       0.000076  -0.000174   0.000909
     47       0.000057   0.000014   0.000223
     48       0.000012   0.000019   0.000062
     49      -0.000037  -0.000074  -0.000075
     50      -0.000008  -0.000016   0.000149


-----------
IR SPECTRUM
-----------

 Mode    freq (cm**-1)   T**2         TX         TY         TZ
-------------------------------------------------------------------
   7:       137.61    1.499333  ( -1.127556  -0.380686   0.288146)
   8:       230.32    0.467520  (  0.632317   0.216691  -0.144016)
   9:       263.66    0.267208  ( -0.490411  -0.137258   0.088689)
  10:       279.23    2.074322  (  0.060624  -0.955293  -1.076133)
  11:       372.77    1.370662  (  0.411314  -0.580628   0.929707)
  12:       396.59    0.444290  ( -0.162477   0.614237   0.201504)
  13:       446.36    0.375301  ( -0.559662  -0.196358   0.153373)
  14:       509.58    4.091899  ( -1.869069  -0.606849   0.479807)
  15:       538.05    0.388535  ( -0.090507   0.541453   0.295250)
  16:       567.84    0.362104  ( -0.197241   0.561806  -0.087029)
  17:       684.88    6.810905  ( -1.002626   1.620178  -1.783443)
  18:       710.47    3.504736  ( -1.722102  -0.583191   0.446083)
  19:       748.13   46.978305  ( -6.344622  -2.074347   1.556010)
  20:       808.63    6.104390  ( -2.242815  -0.803618   0.654498)
  21:       809.72    4.295215  (  0.842645  -0.819612   1.706869)
  22:       886.10   38.496517  ( -2.318445   3.940420  -4.194570)
  23:       895.72    0.139807  ( -0.340992  -0.124417   0.089733)
  24:       996.73    0.284778  (  0.478954   0.147546  -0.183332)
  25:      1007.59    1.238209  (  0.370892  -0.363135   0.984267)
  26:      1031.31    0.108046  ( -0.318819  -0.042718   0.067640)
  27:      1053.07    4.231798  (  1.899213   0.633761  -0.472371)
  28:      1074.10    4.913421  ( -0.585525   2.092317   0.439082)
  29:      1095.70   19.942092  (  1.657914  -3.772905   1.720060)
  30:      1168.16    4.892750  ( -0.582387   0.202728  -2.124259)
  31:      1173.23    6.622011  (  0.773856  -0.589323   2.382406)
  32:      1223.13    9.336047  ( -1.149195   1.913683  -2.086436)
  33:      1290.19    2.034027  (  0.322569  -1.308546  -0.466565)
  34:      1367.32   16.874291  (  0.381851   1.644428   3.744908)
  35:      1401.12   20.041377  (  1.686409  -3.270669   2.549534)
  36:      1414.20  227.242896  ( -5.687054   9.920049  -9.823082)
  37:      1447.41   20.139780  ( -1.023750  -0.047073  -4.369153)
  38:      1448.78    6.590095  (  2.364536   0.824243  -0.565409)
  39:      1484.56   17.783328  (  1.463921  -1.909123   3.463454)
  40:      1512.62   14.415085  ( -1.207151   3.599626  -0.023817)
  41:      1626.30   24.263589  ( -0.879901   4.363033   2.110285)
  42:      1652.69   64.093322  (  0.604028   3.659404   7.094874)
  43:      1692.31  164.705122  ( -0.573267   8.888284   9.239854)
  44:      3050.53   11.891162  ( -0.060551   2.030839   2.786250)
  45:      3133.36    2.693778  (  1.558281   0.514926   0.019714)
  46:      3139.92   14.809942  ( -0.710778  -0.208035  -3.776435)
  47:      3180.33    1.647085  (  0.173175  -1.021849  -0.756916)
  48:      3192.53    9.252911  (  0.472205   0.757630   2.907908)
  49:      3203.74    7.844254  (  0.999771  -2.512078   0.730873)
  50:      3240.32    4.244875  (  0.659920  -0.528431   1.878867)

The first frequency considered to be a vibration is 7
The total number of vibrations considered is 44


--------------------------
THERMOCHEMISTRY AT 298.15K
--------------------------

Temperature         ... 298.15 K
Pressure            ... 1.00 atm
Total Mass          ... 137.14 AMU

Throughout the following assumptions are being made:
  (1) The electronic state is orbitally nondegenerate
  (2) There are no thermally accessible electronically excited states
  (3) Hindered rotations indicated by low frequency modes are not
      treated as such but are treated as vibrations and this may
      cause some error
  (4) All equations used are the standard statistical mechanics
      equations for an ideal gas
  (5) All vibrations are strictly harmonic

freq.     137.61  E(vib)   ...       0.42 
freq.     230.32  E(vib)   ...       0.32 
freq.     263.66  E(vib)   ...       0.29 
freq.     279.23  E(vib)   ...       0.28 
freq.     372.77  E(vib)   ...       0.21 
freq.     396.59  E(vib)   ...       0.20 
freq.     446.36  E(vib)   ...       0.17 
freq.     509.58  E(vib)   ...       0.14 
freq.     538.05  E(vib)   ...       0.12 
freq.     567.84  E(vib)   ...       0.11 
freq.     684.88  E(vib)   ...       0.07 
freq.     710.47  E(vib)   ...       0.07 
freq.     748.13  E(vib)   ...       0.06 
freq.     808.63  E(vib)   ...       0.05 
freq.     809.72  E(vib)   ...       0.05 
freq.     886.10  E(vib)   ...       0.04 
freq.     895.72  E(vib)   ...       0.03 
freq.     996.73  E(vib)   ...       0.02 
freq.    1007.59  E(vib)   ...       0.02 
freq.    1031.31  E(vib)   ...       0.02 
freq.    1053.07  E(vib)   ...       0.02 
freq.    1074.10  E(vib)   ...       0.02 
freq.    1095.70  E(vib)   ...       0.02 
freq.    1168.16  E(vib)   ...       0.01 
freq.    1173.23  E(vib)   ...       0.01 
freq.    1223.13  E(vib)   ...       0.01 
freq.    1290.19  E(vib)   ...       0.01 
freq.    1367.32  E(vib)   ...       0.01 
freq.    1401.12  E(vib)   ...       0.00 
freq.    1414.20  E(vib)   ...       0.00 
freq.    1447.41  E(vib)   ...       0.00 
freq.    1448.78  E(vib)   ...       0.00 
freq.    1484.56  E(vib)   ...       0.00 
freq.    1512.62  E(vib)   ...       0.00 
freq.    1626.30  E(vib)   ...       0.00 
freq.    1652.69  E(vib)   ...       0.00 
freq.    1692.31  E(vib)   ...       0.00 
freq.    3050.53  E(vib)   ...       0.00 
freq.    3133.36  E(vib)   ...       0.00 
freq.    3139.92  E(vib)   ...       0.00 
freq.    3180.33  E(vib)   ...       0.00 
freq.    3192.53  E(vib)   ...       0.00 
freq.    3203.74  E(vib)   ...       0.00 
freq.    3240.32  E(vib)   ...       0.00 

------------
INNER ENERGY
------------

The inner energy is: U= E(el) + E(ZPE) + E(vib) + E(rot) + E(trans)
    E(el)   - is the total energy from the electronic structure calculation
              = E(kin-el) + E(nuc-el) + E(el-el) + E(nuc-nuc)
    E(ZPE)  - the the zero temperature vibrational energy from the frequency calculation
    E(vib)  - the the finite temperature correction to E(ZPE) due to population
              of excited vibrational states
    E(rot)  - is the rotational thermal energy
    E(trans)- is the translational thermal energy

Summary of contributions to the inner energy U:
Electronic energy                ...   -475.47962087 Eh
Zero point energy                ...      0.13119273 Eh      82.32 kcal/mol
Thermal vibrational correction   ...      0.00449551 Eh       2.82 kcal/mol
Thermal rotational correction    ...      0.00141627 Eh       0.89 kcal/mol
Thermal translational correction ...      0.00141627 Eh       0.89 kcal/mol
-----------------------------------------------------------------------
Total thermal energy                   -475.34110008 Eh


Summary of corrections to the electronic energy:
(perhaps to be used in another calculation)
Total thermal correction                  0.00732806 Eh       4.60 kcal/mol
Non-thermal (ZPE) correction              0.13119273 Eh      82.32 kcal/mol
-----------------------------------------------------------------------
Total correction                          0.13852078 Eh      86.92 kcal/mol


--------
ENTHALPY
--------

The enthalpy is H = U + kB*T
                kB is Boltzmann's constant
Total free energy                 ...   -475.34110008 Eh 
Thermal Enthalpy correction       ...      0.00094421 Eh       0.59 kcal/mol
-----------------------------------------------------------------------
Total Enthalpy                    ...   -475.34015587 Eh


Note: Only C1 symmetry has been detected, increase convergence thresholds 
      if your molecule has a higher symmetry. Symmetry factor of 1.0 is   
      used for the rotational entropy correction. 
 

Note: Rotational entropy computed according to Herzberg 
Infrared and Raman Spectra, Chapter V,1, Van Nostrand Reinhold, 1945 
Point Group:  C1, Symmetry Number:   1  
Rotational constants in cm-1:     0.074924     0.042117     0.027095 

Vibrational entropy computed according to the QRRHO of S. Grimme
Chem.Eur.J. 2012 18 9955


-------
ENTROPY
-------

The entropy contributions are T*S = T*(S(el)+S(vib)+S(rot)+S(trans))
     S(el)   - electronic entropy
     S(vib)  - vibrational entropy
     S(rot)  - rotational entropy
     S(trans)- translational entropy
The entropies will be listed as mutliplied by the temperature to get
units of energy

Electronic entropy                ...      0.00000000 Eh      0.00 kcal/mol
Vibrational entropy               ...      0.00700162 Eh      4.39 kcal/mol
Rotational entropy                ...      0.01393287 Eh      8.74 kcal/mol
Translational entropy             ...      0.01931853 Eh     12.12 kcal/mol
-----------------------------------------------------------------------
Final entropy term                ...      0.04025302 Eh     25.26 kcal/mol

In case the symmetry of your molecule has not been determined correctly
or in case you have a reason to use a different symmetry number we print 
out the resulting rotational entropy values for sn=1,12 :
 --------------------------------------------------------
|  sn= 1 | S(rot)=       0.01393287 Eh      8.74 kcal/mol|
|  sn= 2 | S(rot)=       0.01327842 Eh      8.33 kcal/mol|
|  sn= 3 | S(rot)=       0.01289559 Eh      8.09 kcal/mol|
|  sn= 4 | S(rot)=       0.01262396 Eh      7.92 kcal/mol|
|  sn= 5 | S(rot)=       0.01241327 Eh      7.79 kcal/mol|
|  sn= 6 | S(rot)=       0.01224113 Eh      7.68 kcal/mol|
|  sn= 7 | S(rot)=       0.01209558 Eh      7.59 kcal/mol|
|  sn= 8 | S(rot)=       0.01196951 Eh      7.51 kcal/mol|
|  sn= 9 | S(rot)=       0.01185830 Eh      7.44 kcal/mol|
|  sn=10 | S(rot)=       0.01175882 Eh      7.38 kcal/mol|
|  sn=11 | S(rot)=       0.01166883 Eh      7.32 kcal/mol|
|  sn=12 | S(rot)=       0.01158667 Eh      7.27 kcal/mol|
 --------------------------------------------------------


-------------------
GIBBS FREE ENERGY
-------------------

The Gibbs free energy is G = H - T*S

Total enthalpy                    ...   -475.34015587 Eh 
Total entropy correction          ...     -0.04025302 Eh    -25.26 kcal/mol
-----------------------------------------------------------------------
Final Gibbs free energy         ...   -475.38040890 Eh

For completeness - the Gibbs free energy minus the electronic energy
G-E(el)                           ...      0.09921197 Eh     62.26 kcal/mol


Timings for individual modules:

Sum of individual times         ...    41537.514 sec (= 692.292 min)
GTO integral calculation        ...        5.909 sec (=   0.098 min)   0.0 %
SCF iterations                  ...    36687.468 sec (= 611.458 min)  88.3 %
SCF Gradient evaluation         ...      418.761 sec (=   6.979 min)   1.0 %
Geometry relaxation             ...        2.199 sec (=   0.037 min)   0.0 %
Analytical frequency calculation...     4423.177 sec (=  73.720 min)  10.6 %
                             ****ORCA TERMINATED NORMALLY****
TOTAL RUN TIME: 0 days 11 hours 32 minutes 23 seconds 727 msec
