
                                 *****************
                                 * O   R   C   A *
                                 *****************

                                            #,                                       
                                            ###                                      
                                            ####                                     
                                            #####                                    
                                            ######                                   
                                           ########,                                 
                                     ,,################,,,,,                         
                               ,,#################################,,                 
                          ,,##########################################,,             
                       ,#########################################, ''#####,          
                    ,#############################################,,   '####,        
                  ,##################################################,,,,####,       
                ,###########''''           ''''###############################       
              ,#####''   ,,,,##########,,,,          '''####'''          '####       
            ,##' ,,,,###########################,,,                        '##       
           ' ,,###''''                  '''############,,,                           
         ,,##''                                '''############,,,,        ,,,,,,###''
      ,#''                                            '''#######################'''  
     '                                                          ''''####''''         
             ,#######,   #######,   ,#######,      ##                                
            ,#'     '#,  ##    ##  ,#'     '#,    #''#        ######   ,####,        
            ##       ##  ##   ,#'  ##            #'  '#       #        #'  '#        
            ##       ##  #######   ##           ,######,      #####,   #    #        
            '#,     ,#'  ##    ##  '#,     ,#' ,#      #,         ##   #,  ,#        
             '#######'   ##     ##  '#######'  #'      '#     #####' # '####'        



                  #######################################################
                  #                        -***-                        #
                  #          Department of theory and spectroscopy      #
                  #    Directorship and core code : Frank Neese         #
                  #        Max Planck Institute fuer Kohlenforschung    #
                  #                Kaiser Wilhelm Platz 1               #
                  #                 D-45470 Muelheim/Ruhr               #
                  #                      Germany                        #
                  #                                                     #
                  #                  All rights reserved                #
                  #                        -***-                        #
                  #######################################################



                         Program Version 5.0.4 -  RELEASE  -

 With contributions from (in alphabetic order):
   Daniel Aravena         : Magnetic Suceptibility
   Michael Atanasov       : Ab Initio Ligand Field Theory (pilot matlab implementation)
   Alexander A. Auer      : GIAO ZORA, VPT2 properties, NMR spectrum
   Ute Becker             : Parallelization
   Giovanni Bistoni       : ED, misc. LED, open-shell LED, HFLD
   Martin Brehm           : Molecular dynamics
   Dmytro Bykov           : SCF Hessian
   Vijay G. Chilkuri      : MRCI spin determinant printing, contributions to CSF-ICE
   Dipayan Datta          : RHF DLPNO-CCSD density
   Achintya Kumar Dutta   : EOM-CC, STEOM-CC
   Dmitry Ganyushin       : Spin-Orbit,Spin-Spin,Magnetic field MRCI
   Miquel Garcia          : C-PCM and meta-GGA Hessian, CC/C-PCM, Gaussian charge scheme
   Yang Guo               : DLPNO-NEVPT2, F12-NEVPT2, CIM, IAO-localization
   Andreas Hansen         : Spin unrestricted coupled pair/coupled cluster methods
   Benjamin Helmich-Paris : MC-RPA, TRAH-SCF, COSX integrals
   Lee Huntington         : MR-EOM, pCC
   Robert Izsak           : Overlap fitted RIJCOSX, COSX-SCS-MP3, EOM
   Marcus Kettner         : VPT2
   Christian Kollmar      : KDIIS, OOCD, Brueckner-CCSD(T), CCSD density, CASPT2, CASPT2-K
   Simone Kossmann        : Meta GGA functionals, TD-DFT gradient, OOMP2, MP2 Hessian
   Martin Krupicka        : Initial AUTO-CI
   Lucas Lang             : DCDCAS
   Marvin Lechner         : AUTO-CI (C++ implementation), FIC-MRCC
   Dagmar Lenk            : GEPOL surface, SMD
   Dimitrios Liakos       : Extrapolation schemes; Compound Job, initial MDCI parallelization
   Dimitrios Manganas     : Further ROCIS development; embedding schemes
   Dimitrios Pantazis     : SARC Basis sets
   Anastasios Papadopoulos: AUTO-CI, single reference methods and gradients
   Taras Petrenko         : DFT Hessian,TD-DFT gradient, ASA, ECA, R-Raman, ABS, FL, XAS/XES, NRVS
   Peter Pinski           : DLPNO-MP2, DLPNO-MP2 Gradient
   Christoph Reimann      : Effective Core Potentials
   Marius Retegan         : Local ZFS, SOC
   Christoph Riplinger    : Optimizer, TS searches, QM/MM, DLPNO-CCSD(T), (RO)-DLPNO pert. Triples
   Tobias Risthaus        : Range-separated hybrids, TD-DFT gradient, RPA, STAB
   Michael Roemelt        : Original ROCIS implementation
   Masaaki Saitow         : Open-shell DLPNO-CCSD energy and density
   Barbara Sandhoefer     : DKH picture change effects
   Avijit Sen             : IP-ROCIS
   Kantharuban Sivalingam : CASSCF convergence, NEVPT2, FIC-MRCI
   Bernardo de Souza      : ESD, SOC TD-DFT
   Georgi Stoychev        : AutoAux, RI-MP2 NMR, DLPNO-MP2 response
   Willem Van den Heuvel  : Paramagnetic NMR
   Boris Wezisla          : Elementary symmetry handling
   Frank Wennmohs         : Technical directorship


 We gratefully acknowledge several colleagues who have allowed us to
 interface, adapt or use parts of their codes:
   Stefan Grimme, W. Hujo, H. Kruse, P. Pracht,  : VdW corrections, initial TS optimization,
                  C. Bannwarth, S. Ehlert          DFT functionals, gCP, sTDA/sTD-DF
   Ed Valeev, F. Pavosevic, A. Kumar             : LibInt (2-el integral package), F12 methods
   Garnet Chan, S. Sharma, J. Yang, R. Olivares  : DMRG
   Ulf Ekstrom                                   : XCFun DFT Library
   Mihaly Kallay                                 : mrcc  (arbitrary order and MRCC methods)
   Jiri Pittner, Ondrej Demel                    : Mk-CCSD
   Frank Weinhold                                : gennbo (NPA and NBO analysis)
   Christopher J. Cramer and Donald G. Truhlar   : smd solvation model
   Lars Goerigk                                  : TD-DFT with DH, B97 family of functionals
   V. Asgeirsson, H. Jonsson                     : NEB implementation
   FAccTs GmbH                                   : IRC, NEB, NEB-TS, DLPNO-Multilevel, CI-OPT
                                                   MM, QMMM, 2- and 3-layer-ONIOM, Crystal-QMMM,
                                                   LR-CPCM, SF, NACMEs, symmetry and pop. for TD-DFT,
                                                   nearIR, NL-DFT gradient (VV10), updates on ESD,
                                                   ML-optimized integration grids
   S Lehtola, MJT Oliveira, MAL Marques          : LibXC Library
   Liviu Ungur et al                             : ANISO software


 Your calculation uses the libint2 library for the computation of 2-el integrals
 For citations please refer to: http://libint.valeyev.net

 Your ORCA version has been built with support for libXC version: 5.1.0
 For citations please refer to: https://tddft.org/programs/libxc/

 This ORCA versions uses:
   CBLAS   interface :  Fast vector & matrix operations
   LAPACKE interface :  Fast linear algebra routines
   Shared memory     :  Shared parallel matrices


Your calculation utilizes the atom-pairwise dispersion correction
based on tight binding partial charges (D4)
Cite in your paper:
E.Caldeweyher, C.Bannwarth, S.Grimme, J.Chem.Phys., (2017), 147, 034112.
E.Caldeweyher, S.Ehlert, A.Hansen, H.Neugebauer, S.Grimme, J.Chem.Phys., (2018), in progress.
   

================================================================================

----- Orbital basis set information -----
Your calculation utilizes the basis: def2-SVP
   F. Weigend and R. Ahlrichs, Phys. Chem. Chem. Phys. 7, 3297 (2005).

----- AuxJ basis set information -----
Your calculation utilizes the auxiliary basis: def2/J
   F. Weigend, Phys. Chem. Chem. Phys. 8, 1057 (2006).

================================================================================
                                        WARNINGS
                       Please study these warnings very carefully!
================================================================================


WARNING: Geometry Optimization
  ===> : Switching off AutoStart
         For restart on a previous wavefunction, please use MOREAD

INFO   : the flag for use of the SHARK integral package has been found!

================================================================================
                                       INPUT FILE
================================================================================
NAME = nitrobenzen_opt.inp
|  1> !B3LYP DEF2-SVP OPT D4
|  2> 
|  3> * xyz 1 1
|  4>    H        0.42951       -2.60041        0.79729
|  5>    C        0.43026       -1.55035        0.51494
|  6>    C       -0.77394       -0.89619        0.27171
|  7>    H       -1.71504       -1.43348        0.36313
|  8>    C       -0.76933        0.44815       -0.08829
|  9>    H       -1.70826        0.96246       -0.27863
| 10>    C        0.43687        1.13680       -0.20510
| 11>    H        0.41383        2.18678       -0.48732
| 12>    C        1.65766        0.49213        0.03497
| 13>    H        1.25959        3.83828       -2.49714
| 14>    C        1.63774       -0.86336        0.39817
| 15>    H        2.55928       -1.40459        0.59685
| 16>    N        2.83886        1.19816       -0.08705
| 17>    O        2.92015        2.44351       -0.40859
| 18>    O        4.05532        0.49698        0.11224
| 19> **                         ****END OF INPUT****
================================================================================

                       *****************************
                       * Geometry Optimization Run *
                       *****************************

Geometry optimization settings:
Update method            Update   .... BFGS
Choice of coordinates    CoordSys .... Z-matrix Internals
Initial Hessian          InHess   .... Almoef's Model

Convergence Tolerances:
Energy Change            TolE     ....  5.0000e-06 Eh
Max. Gradient            TolMAXG  ....  3.0000e-04 Eh/bohr
RMS Gradient             TolRMSG  ....  1.0000e-04 Eh/bohr
Max. Displacement        TolMAXD  ....  4.0000e-03 bohr
RMS Displacement         TolRMSD  ....  2.0000e-03 bohr
Strict Convergence                ....  False
------------------------------------------------------------------------------
                        ORCA OPTIMIZATION COORDINATE SETUP
------------------------------------------------------------------------------

The optimization will be done in new redundant internal coordinates
Making redundant internal coordinates   ...  (new redundants) done
Evaluating the initial hessian          ...  (Almloef) done
Evaluating the coordinates              ...  done
Calculating the B-matrix                .... done
Calculating the G-matrix                .... done
Diagonalizing the G-matrix              .... done
The first mode is                       ....   35
The number of degrees of freedom        ....   39

    -----------------------------------------------------------------
                    Redundant Internal Coordinates


    -----------------------------------------------------------------
         Definition                    Initial Value    Approx d2E/dq
    -----------------------------------------------------------------
      1. B(C   1,H   0)                  1.0874         0.363612   
      2. B(C   2,C   1)                  1.3918         0.620616   
      3. B(H   3,C   2)                  1.0875         0.363391   
      4. B(C   4,C   2)                  1.3917         0.620872   
      5. B(H   5,C   4)                  1.0874         0.363621   
      6. B(C   6,C   4)                  1.3938         0.616035   
      7. B(H   7,C   6)                  1.0875         0.363434   
      8. B(C   8,C   6)                  1.4013         0.599454   
      9. B(H   9,H   7)                  2.7353         0.000163   
     10. B(C  10,C   8)                  1.4034         0.594681   
     11. B(C  10,C   1)                  1.3941         0.615389   
     12. B(H  11,C  10)                  1.0870         0.364047   
     13. B(N  12,C   8)                  1.3815         0.577302   
     14. B(O  13,N  12)                  1.2888         0.727010   
     15. B(O  13,H   9)                  3.0108         0.000278   
     16. B(O  14,N  12)                  1.4181         0.451964   
     17. A(H   0,C   1,C   2)          119.9114         0.353549   
     18. A(C   2,C   1,C  10)          120.2065         0.433561   
     19. A(H   0,C   1,C  10)          119.8821         0.353043   
     20. A(C   1,C   2,C   4)          119.7582         0.434253   
     21. A(H   3,C   2,C   4)          120.1220         0.353537   
     22. A(C   1,C   2,H   3)          120.1198         0.353512   
     23. A(H   5,C   4,C   6)          119.9269         0.353107   
     24. A(C   2,C   4,C   6)          120.1186         0.433675   
     25. A(C   2,C   4,H   5)          119.9545         0.353575   
     26. A(H   7,C   6,C   8)          120.4715         0.351451   
     27. A(C   4,C   6,C   8)          120.8145         0.430947   
     28. A(C   4,C   6,H   7)          118.7140         0.353076   
     29. A(C   6,H   7,H   9)          140.0911         0.117323   
     30. A(C   6,C   8,C  10)          118.4448         0.428228   
     31. A(C  10,C   8,N  12)          121.9097         0.422581   
     32. A(C   6,C   8,N  12)          119.6454         0.423185   
     33. A(H   7,H   9,O  13)           51.7673         0.094517   
     34. A(C   1,C  10,H  11)          118.2681         0.353114   
     35. A(C   1,C  10,C   8)          120.6574         0.430248   
     36. A(C   8,C  10,H  11)          121.0744         0.351076   
     37. A(O  13,N  12,O  14)          117.3056         0.411094   
     38. A(C   8,N  12,O  14)          117.9246         0.397303   
     39. A(C   8,N  12,O  13)          124.7367         0.432322   
     40. A(H   9,O  13,N  12)          125.8692         0.141519   
     41. D(C   4,C   2,C   1,C  10)     -0.0358         0.026655   
     42. D(H   3,C   2,C   1,H   0)     -0.0277         0.026655   
     43. D(C   4,C   2,C   1,H   0)    179.9417         0.026655   
     44. D(H   3,C   2,C   1,C  10)    179.9948         0.026655   
     45. D(H   5,C   4,C   2,H   3)     -0.0043         0.026679   
     46. D(H   5,C   4,C   2,C   1)   -179.9736         0.026679   
     47. D(C   6,C   4,C   2,C   1)      0.0139         0.026679   
     48. D(C   6,C   4,C   2,H   3)    179.9833         0.026679   
     49. D(C   8,C   6,C   4,H   5)   -179.9553         0.026240   
     50. D(C   8,C   6,C   4,C   2)      0.0572         0.026240   
     51. D(H   7,C   6,C   4,H   5)      0.0136         0.026240   
     52. D(H   7,C   6,C   4,C   2)   -179.9740         0.026240   
     53. D(H   9,H   7,C   6,C   8)     62.5718         0.112114   
     54. D(H   9,H   7,C   6,C   4)   -117.3971         0.112114   
     55. D(C  10,C   8,C   6,C   4)     -0.1039         0.024770   
     56. D(N  12,C   8,C   6,H   7)      0.0695         0.024770   
     57. D(N  12,C   8,C   6,C   4)   -179.9622         0.024770   
     58. D(C  10,C   8,C   6,H   7)    179.9278         0.024770   
     59. D(O  13,H   9,H   7,C   6)    -70.9748         0.001500   
     60. D(H  11,C  10,C   8,C   6)   -179.8346         0.024357   
     61. D(C   1,C  10,C   8,N  12)    179.9366         0.024357   
     62. D(C   1,C  10,C   8,C   6)      0.0818         0.024357   
     63. D(H  11,C  10,C   1,C   2)    179.9057         0.026182   
     64. D(H  11,C  10,C   1,H   0)     -0.0718         0.026182   
     65. D(C   8,C  10,C   1,C   2)     -0.0129         0.026182   
     66. D(H  11,C  10,C   8,N  12)      0.0203         0.024357   
     67. D(C   8,C  10,C   1,H   0)   -179.9904         0.026182   
     68. D(O  14,N  12,C   8,C  10)      2.6004         0.026715   
     69. D(O  14,N  12,C   8,C   6)   -177.5464         0.026715   
     70. D(O  13,N  12,C   8,C  10)   -179.5548         0.026715   
     71. D(O  13,N  12,C   8,C   6)      0.2984         0.026715   
     72. D(H   9,O  13,N  12,O  14)    137.4945         0.047097   
     73. D(H   9,O  13,N  12,C   8)    -40.3625         0.047097   
     74. D(N  12,O  13,H   9,H   7)     48.2767         0.001500   
    -----------------------------------------------------------------

Number of atoms                         .... 15
Number of degrees of freedom            .... 74

         *************************************************************
         *                GEOMETRY OPTIMIZATION CYCLE   1            *
         *************************************************************
---------------------------------
CARTESIAN COORDINATES (ANGSTROEM)
---------------------------------
  H      0.429510   -2.600410    0.797290
  C      0.430260   -1.550350    0.514940
  C     -0.773940   -0.896190    0.271710
  H     -1.715040   -1.433480    0.363130
  C     -0.769330    0.448150   -0.088290
  H     -1.708260    0.962460   -0.278630
  C      0.436870    1.136800   -0.205100
  H      0.413830    2.186780   -0.487320
  C      1.657660    0.492130    0.034970
  H      1.259590    3.838280   -2.497140
  C      1.637740   -0.863360    0.398170
  H      2.559280   -1.404590    0.596850
  N      2.838860    1.198160   -0.087050
  O      2.920150    2.443510   -0.408590
  O      4.055320    0.496980    0.112240

----------------------------
CARTESIAN COORDINATES (A.U.)
----------------------------
  NO LB      ZA    FRAG     MASS         X           Y           Z
   0 H     1.0000    0     1.008    0.811656   -4.914063    1.506660
   1 C     6.0000    0    12.011    0.813074   -2.929737    0.973096
   2 C     6.0000    0    12.011   -1.462535   -1.693554    0.513457
   3 H     1.0000    0     1.008   -3.240956   -2.708885    0.686216
   4 C     6.0000    0    12.011   -1.453823    0.846881   -0.166844
   5 H     1.0000    0     1.008   -3.228144    1.818786   -0.526534
   6 C     6.0000    0    12.011    0.825565    2.148241   -0.387583
   7 H     1.0000    0     1.008    0.782025    4.132415   -0.920901
   8 C     6.0000    0    12.011    3.132523    0.929991    0.066084
   9 H     1.0000    0     1.008    2.380280    7.253298   -4.718911
  10 C     6.0000    0    12.011    3.094880   -1.631514    0.752432
  11 H     1.0000    0     1.008    4.836338   -2.654290    1.127883
  12 N     7.0000    0    14.007    5.364668    2.264194   -0.164501
  13 O     8.0000    0    15.999    5.518284    4.617565   -0.772123
  14 O     8.0000    0    15.999    7.663444    0.939156    0.212103

--------------------------------
INTERNAL COORDINATES (ANGSTROEM)
--------------------------------
 H      0   0   0     0.000000000000     0.00000000     0.00000000
 C      1   0   0     1.087358307367     0.00000000     0.00000000
 C      2   1   0     1.391827495956   119.91140643     0.00000000
 H      3   2   1     1.087523503424   120.11984959   359.97230901
 C      3   2   1     1.391715232258   119.75817247   179.94170572
 H      5   3   2     1.087351661883   119.95452077   180.02635379
 C      5   3   2     1.393844266265   120.11858066     0.00000000
 H      7   5   3     1.087491135780   118.71398236   180.02604736
 C      7   5   3     1.401271293469   120.81447385     0.05717139
 H      8   7   5     2.735349824063   140.09113981   242.60286200
 C      2   1   3     1.394129995158   119.88209917   179.97754778
 H     11   2   1     1.087032486589   118.26813332   359.92821868
 N      9   7   5     1.381521147612   119.64536159   180.03784534
 O     13   9   7     1.288756244679   124.73673162     0.29844941
 O     13   9   7     1.418148380142   117.92455787   182.45356209

---------------------------
INTERNAL COORDINATES (A.U.)
---------------------------
 H      0   0   0     0.000000000000     0.00000000     0.00000000
 C      1   0   0     2.054809410368     0.00000000     0.00000000
 C      2   1   0     2.630172793019   119.91140643     0.00000000
 H      3   2   1     2.055121585674   120.11984959   359.97230901
 C      3   2   1     2.629960645375   119.75817247   179.94170572
 H      5   3   2     2.054796852223   119.95452077   180.02635379
 C      5   3   2     2.633983936577   120.11858066     0.00000000
 H      7   5   3     2.055060419691   118.71398236   180.02604736
 C      7   5   3     2.648018983982   120.81447385     0.05717139
 H      8   7   5     5.169062047948   140.09113981   242.60286200
 C      2   1   3     2.634523885934   119.88209917   179.97754778
 H     11   2   1     2.054193698329   118.26813332   359.92821868
 N      9   7   5     2.610696617208   119.64536159   180.03784534
 O     13   9   7     2.435396355825   124.73673162     0.29844941
 O     13   9   7     2.679912055733   117.92455787   182.45356209

---------------------
BASIS SET INFORMATION
---------------------
There are 4 groups of distinct atoms

 Group   1 Type H   : 4s1p contracted to 2s1p pattern {31/1}
 Group   2 Type C   : 7s4p1d contracted to 3s2p1d pattern {511/31/1}
 Group   3 Type N   : 7s4p1d contracted to 3s2p1d pattern {511/31/1}
 Group   4 Type O   : 7s4p1d contracted to 3s2p1d pattern {511/31/1}

Atom   0H    basis set group =>   1
Atom   1C    basis set group =>   2
Atom   2C    basis set group =>   2
Atom   3H    basis set group =>   1
Atom   4C    basis set group =>   2
Atom   5H    basis set group =>   1
Atom   6C    basis set group =>   2
Atom   7H    basis set group =>   1
Atom   8C    basis set group =>   2
Atom   9H    basis set group =>   1
Atom  10C    basis set group =>   2
Atom  11H    basis set group =>   1
Atom  12N    basis set group =>   3
Atom  13O    basis set group =>   4
Atom  14O    basis set group =>   4
---------------------------------
AUXILIARY/J BASIS SET INFORMATION
---------------------------------
There are 4 groups of distinct atoms

 Group   1 Type H   : 5s2p1d contracted to 3s1p1d pattern {311/2/1}
 Group   2 Type C   : 12s5p4d2f1g contracted to 6s4p3d1f1g pattern {711111/2111/211/2/1}
 Group   3 Type N   : 12s5p4d2f1g contracted to 6s4p3d1f1g pattern {711111/2111/211/2/1}
 Group   4 Type O   : 12s5p4d2f1g contracted to 6s4p3d1f1g pattern {711111/2111/211/2/1}

Atom   0H    basis set group =>   1
Atom   1C    basis set group =>   2
Atom   2C    basis set group =>   2
Atom   3H    basis set group =>   1
Atom   4C    basis set group =>   2
Atom   5H    basis set group =>   1
Atom   6C    basis set group =>   2
Atom   7H    basis set group =>   1
Atom   8C    basis set group =>   2
Atom   9H    basis set group =>   1
Atom  10C    basis set group =>   2
Atom  11H    basis set group =>   1
Atom  12N    basis set group =>   3
Atom  13O    basis set group =>   4
Atom  14O    basis set group =>   4
------------------------------------------------------------------------------
                           ORCA GTO INTEGRAL CALCULATION
                           -- RI-GTO INTEGRALS CHOSEN --
------------------------------------------------------------------------------
------------------------------------------------------------------------------
                   ___                                                        
                  /   \      - P O W E R E D   B Y -                         
                 /     \                                                     
                 |  |  |   _    _      __       _____    __    __             
                 |  |  |  | |  | |    /  \     |  _  \  |  |  /  |          
                  \  \/   | |  | |   /    \    | | | |  |  | /  /          
                 / \  \   | |__| |  /  /\  \   | |_| |  |  |/  /          
                |  |  |   |  __  | /  /__\  \  |    /   |      \           
                |  |  |   | |  | | |   __   |  |    \   |  |\   \          
                \     /   | |  | | |  |  |  |  | |\  \  |  | \   \       
                 \___/    |_|  |_| |__|  |__|  |_| \__\ |__|  \__/        
                                                                              
                      - O R C A' S   B I G   F R I E N D -                    
                                      &                                       
                       - I N T E G R A L  F E E D E R -                       
                                                                              
 v1 FN, 2020, v2 2021                                                         
------------------------------------------------------------------------------


Reading SHARK input file nitrobenzen_opt.SHARKINP.tmp ... ok
----------------------
SHARK INTEGRAL PACKAGE
----------------------

Number of atoms                             ...     15
Number of basis functions                   ...    156
Number of shells                            ...     72
Maximum angular momentum                    ...      2
Integral batch strategy                     ... SHARK/LIBINT Hybrid
RI-J (if used) integral strategy            ... SPLIT-RIJ (Revised 2003 algorithm where possible)
Printlevel                                  ...      1
Contraction scheme used                     ... SEGMENTED contraction
Coulomb Range Separation                    ... NOT USED
Exchange Range Separation                   ... NOT USED
Finite Nucleus Model                        ... NOT USED
Auxiliary Coulomb fitting basis             ... AVAILABLE
   # of basis functions in Aux-J            ...    507
   # of shells in Aux-J                     ...    165
   Maximum angular momentum in Aux-J        ...      4
Auxiliary J/K fitting basis                 ... NOT available
Auxiliary Correlation fitting basis         ... NOT available
Auxiliary 'external' fitting basis          ... NOT available
Integral threshold                          ...     2.500000e-11
Primitive cut-off                           ...     2.500000e-12
Primitive pair pre-selection threshold      ...     2.500000e-12

Calculating pre-screening integrals         ... done (  0.0 sec) Dimension = 72
Organizing shell pair data                  ... done (  0.0 sec)
Shell pair information
Total number of shell pairs                 ...      2628
Shell pairs after pre-screening             ...      2419
Total number of primitive shell pairs       ...      9726
Primitive shell pairs kept                  ...      6466
          la=0 lb=0:    717 shell pairs
          la=1 lb=0:    867 shell pairs
          la=1 lb=1:    281 shell pairs
          la=2 lb=0:    316 shell pairs
          la=2 lb=1:    197 shell pairs
          la=2 lb=2:     41 shell pairs

Calculating one electron integrals          ... done (  0.0 sec)
Calculating RI/J V-Matrix + Cholesky decomp.... done (  0.0 sec)
Calculating Nuclear repulsion               ... done (  0.0 sec) ENN=    413.251155679429 Eh

SHARK setup successfully completed in   0.2 seconds

Maximum memory used throughout the entire GTOINT-calculation: 20.9 MB
-------------------------------------------------------------------------------
                                 ORCA SCF
-------------------------------------------------------------------------------

------------
SCF SETTINGS
------------
Hamiltonian:
 Density Functional     Method          .... DFT(GTOs)
 Exchange Functional    Exchange        .... B88
   X-Alpha parameter    XAlpha          ....  0.666667
   Becke's b parameter  XBeta           ....  0.004200
 Correlation Functional Correlation     .... LYP
 LDA part of GGA corr.  LDAOpt          .... VWN-5
 Gradients option       PostSCFGGA      .... off
 Hybrid DFT is turned on
   Fraction HF Exchange ScalHFX         ....  0.200000
   Scaling of DF-GGA-X  ScalDFX         ....  0.720000
   Scaling of DF-GGA-C  ScalDFC         ....  0.810000
   Scaling of DF-LDA-C  ScalLDAC        ....  1.000000
   Perturbative correction              ....  0.000000
   Density functional embedding theory  .... OFF
   NL short-range parameter             ....  4.800000
 RI-approximation to the Coulomb term is turned on
   Number of AuxJ basis functions       .... 507
   RIJ-COSX (HFX calculated with COS-X)).... on


General Settings:
 Integral files         IntName         .... nitrobenzen_opt
 Hartree-Fock type      HFTyp           .... RHF
 Total Charge           Charge          ....    1
 Multiplicity           Mult            ....    1
 Number of Electrons    NEL             ....   64
 Basis Dimension        Dim             ....  156
 Nuclear Repulsion      ENuc            ....    413.2511556794 Eh

Convergence Acceleration:
 DIIS                   CNVDIIS         .... on
   Start iteration      DIISMaxIt       ....    12
   Startup error        DIISStart       ....  0.200000
   # of expansion vecs  DIISMaxEq       ....     5
   Bias factor          DIISBfac        ....   1.050
   Max. coefficient     DIISMaxC        ....  10.000
 Trust-Rad. Augm. Hess. CNVTRAH         .... auto
   Auto Start mean grad. ratio tolernc. ....  1.125000
   Auto Start start iteration           ....    20
   Auto Start num. interpolation iter.  ....    10
   Max. Number of Micro iterations      ....    16
   Max. Number of Macro iterations      .... Maxiter - #DIIS iter
   Number of Davidson start vectors     ....     2
   Converg. threshold I  (grad. norm)   ....   1.000e-05
   Converg. threshold II (energy diff.) ....   1.000e-08
   Grad. Scal. Fac. for Micro threshold ....   0.100
   Minimum threshold for Micro iter.    ....   0.010
   NR start threshold (gradient norm)   ....   0.001
   Initial trust radius                 ....   0.400
   Minimum AH scaling param. (alpha)    ....   1.000
   Maximum AH scaling param. (alpha)    .... 1000.000
   Orbital update algorithm             .... Taylor
   White noise on init. David. guess    .... on
   Maximum white noise                  ....   0.010
   Quad. conv. algorithm                .... NR
 SOSCF                  CNVSOSCF        .... on
   Start iteration      SOSCFMaxIt      ....   150
   Startup grad/error   SOSCFStart      ....  0.003300
 Level Shifting         CNVShift        .... on
   Level shift para.    LevelShift      ....    0.2500
   Turn off err/grad.   ShiftErr        ....    0.0010
 Zerner damping         CNVZerner       .... off
 Static damping         CNVDamp         .... on
   Fraction old density DampFac         ....    0.7000
   Max. Damping (<1)    DampMax         ....    0.9800
   Min. Damping (>=0)   DampMin         ....    0.0000
   Turn off err/grad.   DampErr         ....    0.1000
 Fernandez-Rico         CNVRico         .... off

SCF Procedure:
 Maximum # iterations   MaxIter         ....   125
 SCF integral mode      SCFMode         .... Direct
   Integral package                     .... SHARK and LIBINT hybrid scheme
 Reset frequency        DirectResetFreq ....    20
 Integral Threshold     Thresh          ....  2.500e-11 Eh
 Primitive CutOff       TCut            ....  2.500e-12 Eh

Convergence Tolerance:
 Convergence Check Mode ConvCheckMode   .... Total+1el-Energy
 Convergence forced     ConvForced      .... 0
 Energy Change          TolE            ....  1.000e-08 Eh
 1-El. energy change                    ....  1.000e-05 Eh
 Orbital Gradient       TolG            ....  1.000e-05
 Orbital Rotation angle TolX            ....  1.000e-05
 DIIS Error             TolErr          ....  5.000e-07


Diagonalization of the overlap matrix:
Smallest eigenvalue                        ... 2.765e-04
Time for diagonalization                   ...    0.006 sec
Threshold for overlap eigenvalues          ... 1.000e-08
Number of eigenvalues below threshold      ... 0
Time for construction of square roots      ...    0.004 sec
Total time needed                          ...    0.010 sec

Time for model grid setup =    0.230 sec

------------------------------
INITIAL GUESS: MODEL POTENTIAL
------------------------------
Loading Hartree-Fock densities                     ... done
Calculating cut-offs                               ... done
Initializing the effective Hamiltonian             ... done
Setting up the integral package (SHARK)            ... done
Starting the Coulomb interaction                   ... done (   0.2 sec)
Reading the grid                                   ... done
Mapping shells                                     ... done
Starting the XC term evaluation                    ... done (   0.5 sec)
  promolecular density results
     # of electrons  =     65.000512925
     EX              =    -55.454519490
     EC              =     -2.218065005
     EX+EC           =    -57.672584495
Transforming the Hamiltonian                       ... done (   0.0 sec)
Diagonalizing the Hamiltonian                      ... done (   0.0 sec)
Back transforming the eigenvectors                 ... done (   0.0 sec)
Now organizing SCF variables                       ... done
                      ------------------
                      INITIAL GUESS DONE (   0.9 sec)
                      ------------------
-------------------
DFT GRID GENERATION
-------------------

General Integration Accuracy     IntAcc      ... 4.388
Radial Grid Type                 RadialGrid  ... OptM3 with GC (2021)
Angular Grid (max. ang.)         AngularGrid ... 4 (Lebedev-302)
Angular grid pruning method      GridPruning ... 4 (adaptive)
Weight generation scheme         WeightScheme... Becke
Basis function cutoff            BFCut       ... 1.0000e-11
Integration weight cutoff        WCut        ... 1.0000e-14
Angular grids for H and He will be reduced by one unit
Partially contracted basis set               ... off
Rotationally invariant grid construction     ... off

Total number of grid points                  ...    73739
Total number of batches                      ...     1161
Average number of points per batch           ...       63
Average number of grid points per atom       ...     4916
Time for grid setup =    1.369 sec

--------------------
COSX GRID GENERATION
--------------------

GRIDX 1
-------
General Integration Accuracy     IntAcc      ... 3.816
Radial Grid Type                 RadialGrid  ... OptM3 with GC (2021)
Angular Grid (max. ang.)         AngularGrid ... 1 (Lebedev-50)
Angular grid pruning method      GridPruning ... 4 (adaptive)
Weight generation scheme         WeightScheme... Becke
Basis function cutoff            BFCut       ... 1.0000e-11
Integration weight cutoff        WCut        ... 1.0000e-14
Angular grids for H and He will be reduced by one unit
Partially contracted basis set               ... on
Rotationally invariant grid construction     ... off

Total number of grid points                  ...     9419
Total number of batches                      ...      152
Average number of points per batch           ...       61
Average number of grid points per atom       ...      628
UseSFitting                                  ... on

GRIDX 2
-------
General Integration Accuracy     IntAcc      ... 4.020
Radial Grid Type                 RadialGrid  ... OptM3 with GC (2021)
Angular Grid (max. ang.)         AngularGrid ... 2 (Lebedev-110)
Angular grid pruning method      GridPruning ... 4 (adaptive)
Weight generation scheme         WeightScheme... Becke
Basis function cutoff            BFCut       ... 1.0000e-11
Integration weight cutoff        WCut        ... 1.0000e-14
Angular grids for H and He will be reduced by one unit
Partially contracted basis set               ... on
Rotationally invariant grid construction     ... off

Total number of grid points                  ...    20937
Total number of batches                      ...      334
Average number of points per batch           ...       62
Average number of grid points per atom       ...     1396
UseSFitting                                  ... on

GRIDX 3
-------
General Integration Accuracy     IntAcc      ... 4.338
Radial Grid Type                 RadialGrid  ... OptM3 with GC (2021)
Angular Grid (max. ang.)         AngularGrid ... 3 (Lebedev-194)
Angular grid pruning method      GridPruning ... 4 (adaptive)
Weight generation scheme         WeightScheme... Becke
Basis function cutoff            BFCut       ... 1.0000e-11
Integration weight cutoff        WCut        ... 1.0000e-14
Angular grids for H and He will be reduced by one unit
Partially contracted basis set               ... on
Rotationally invariant grid construction     ... off

Total number of grid points                  ...    46067
Total number of batches                      ...      729
Average number of points per batch           ...       63
Average number of grid points per atom       ...     3071
UseSFitting                                  ... on

Time for X-Grid setup             =    1.021 sec

--------------
SCF ITERATIONS
--------------
ITER       Energy         Delta-E        Max-DP      RMS-DP      [F,P]     Damp
               ***  Starting incremental Fock matrix formation  ***
  0   -435.8970519290   0.000000000000 0.24843377  0.00452872  0.2820428 0.7000
  1   -436.0629246166  -0.165872687536 0.12383665  0.00292882  0.1084285 0.7000
                               ***Turning on DIIS***
  2   -436.0569068327   0.006017783873 0.30070515  0.00672007  0.0983563 0.0000
  3   -435.9822428773   0.074663955373 0.03056955  0.00082606  0.3647469 0.7000
  4   -436.0171219016  -0.034879024239 0.02811881  0.00089831  0.3281766 0.7000
  5   -436.0417287878  -0.024606886266 0.02623092  0.00078537  0.2928073 0.7000
  6   -436.0585975783  -0.016868790467 0.02377751  0.00067695  0.2621190 0.7000
  7   -436.0767838523  -0.018186274032 0.25301834  0.00340868  0.2318566 0.7000
  8   -436.1993426945  -0.122558842161 0.40090570  0.00612984  0.0278932 0.0000
  9   -435.4421043852   0.757238309334 0.02264787  0.00043119  0.5488669 0.7000
 10   -435.5157904073  -0.073686022156 0.03392398  0.00061029  0.5529999 0.7000
 11   -435.6245632717  -0.108772864345 0.04138618  0.00070607  0.5550379 0.7000
 12   -435.7466491037  -0.122085832071 0.04676612  0.00078040  0.5420826 0.7000
 13   -435.8709966254  -0.124347521679 0.14009809  0.00229514  0.5032661 0.7000
 14   -436.1268537454  -0.255857119987 0.10374526  0.00154557  0.2482352 0.7000
 15   -436.2153925001  -0.088538754713 0.24736073  0.00374916  0.0821869 0.0000
 16   -436.1494188906   0.065973609503 0.00312028  0.00010861  0.1619740 0.7000
 17   -436.1504267068  -0.001007816247 0.00437207  0.00013591  0.1580398 0.7000
 18   -436.1511024226  -0.000675715740 0.00452491  0.00013583  0.1528623 0.7000
 19   -436.1519357559  -0.000833333355 0.00621237  0.00014491  0.1471689 0.7000
               *** Restarting incremental Fock matrix formation ***
                                   *** Resetting DIIS ***
 20   -436.1546235662  -0.002687810240 0.21237604  0.00292070  0.1410609 0.7000
 21   -436.2070863818  -0.052462815581 0.44768527  0.00619909  0.0913344 0.0000

 WARNING: the maximum gradient error descreased on average only by a factor   1.0
          during the last 20 iterations

                      *** Initiating the TRAH-SCF procedure ***


TRAH GRIDX
----------

General Integration Accuracy     IntAcc      ... 3.067
Radial Grid Type                 RadialGrid  ... OptM3 with GC (2021)
Angular Grid (max. ang.)         AngularGrid ... 1 (Lebedev-50)
Angular grid pruning method      GridPruning ... 4 (adaptive)
Weight generation scheme         WeightScheme... Becke
Basis function cutoff            BFCut       ... 1.0000e-11
Integration weight cutoff        WCut        ... 1.0000e-14
Angular grids for H and He will be reduced by one unit
Partially contracted basis set               ... on
Rotationally invariant grid construction     ... off

Total number of grid points                  ...     4997
Total number of batches                      ...       88
Average number of points per batch           ...       56
Average number of grid points per atom       ...      333


TRAH GRID
---------

General Integration Accuracy     IntAcc      ... 3.467
Radial Grid Type                 RadialGrid  ... OptM3 with GC (2021)
Angular Grid (max. ang.)         AngularGrid ... 1 (Lebedev-50)
Angular grid pruning method      GridPruning ... 4 (adaptive)
Weight generation scheme         WeightScheme... Becke
Basis function cutoff            BFCut       ... 1.0000e-11
Integration weight cutoff        WCut        ... 1.0000e-14
Angular grids for H and He will be reduced by one unit
Partially contracted basis set               ... off
Rotationally invariant grid construction     ... off

Total number of grid points                  ...    10969
Total number of batches                      ...      177
Average number of points per batch           ...       61
Average number of grid points per atom       ...      731

 --------------------------------------------------------------------------------------------
   Iter.        energy            ||Error||_2        Shift      TRadius  Mac/Mic        Rej.
 --------------------------------------------------------------------------------------------
WARNING: 43 diagonal Hessian elements are negative!
    0       -435.411780315422     2.994825e+00                     0.400 (TRAH MAcro)   No
WARNING : negative HOMO - LUMO gap : -0.968089
    0     dE    -7.497723e-01     3.005164e+00    -3.7592e+00      0.378 (TRAH MIcro)
    0     dE    -7.373991e-01     4.506201e-01    -6.7965e+00      0.320 (TRAH MIcro)
    0     dE    -7.391909e-01     3.084321e-01    -6.8122e+00      0.320 (TRAH MIcro)
    0     dE    -7.348063e-01     4.404947e-02    -6.8288e+00      0.317 (TRAH MIcro)
    0     dE    -7.338984e-01     1.489079e-02    -6.8295e+00      0.316 (TRAH MIcro)
    0     dE    -7.337336e-01     8.959499e-03    -6.8296e+00      0.316 (TRAH MIcro)
WARNING: 7 diagonal Hessian elements are negative!
    1       -436.047477410074     1.298732e+00                     0.480 (TRAH MAcro)   No
WARNING : negative HOMO - LUMO gap : -0.163660
    1     dE    -1.466487e-01     1.276999e+00    -2.7906e-01      0.226 (TRAH MIcro)
    1     dE    -2.327189e-01     5.600245e-01    -4.0212e-01      0.397 (TRAH MIcro)
    1     dE    -2.608543e-01     2.296618e-01    -4.3432e-01      0.449 (TRAH MIcro)
    1     dE    -2.693525e-01     1.222789e-01    -4.4068e-01      0.472 (TRAH MIcro)
    1     dE    -2.725411e-01     5.116086e-02    -4.6361e-01      0.480 (TRAH MIcro)
    1     dE    -2.730056e-01     3.845881e-02    -4.9202e-01      0.480 (TRAH MIcro)
    1     dE    -2.735560e-01     4.535055e-02    -5.2136e-01      0.480 (TRAH MIcro)
    1     dE    -2.739511e-01     2.518118e-02    -5.4501e-01      0.480 (TRAH MIcro)
    1     dE    -2.740208e-01     1.220902e-02    -5.5072e-01      0.480 (TRAH MIcro)
    1     dE    -2.740517e-01     1.018985e-02    -5.5415e-01      0.480 (TRAH MIcro)
    1     dE    -2.740355e-01     1.304347e-02    -5.5745e-01      0.480 (TRAH MIcro)
    1     dE    -2.741115e-01     8.598381e-03    -5.6009e-01      0.480 (TRAH MIcro)
WARNING: 3 diagonal Hessian elements are negative!
    2       -436.237688693908     1.787173e-01                     0.480 (TRAH MAcro)   No
WARNING : negative HOMO - LUMO gap : -0.035477
    2     dE    -3.654340e-03     2.019662e-01    -7.2963e-03      0.041 (TRAH MIcro)
    2     dE    -1.585509e-02     3.682447e-01    -2.8777e-02      0.319 (TRAH MIcro)
    2     dE    -3.182922e-02     1.099049e-01    -1.3349e-01      0.470 (TRAH MIcro)
    2     dE    -3.366527e-02     6.563487e-02    -1.3894e-01      0.480 (TRAH MIcro)
    2     dE    -3.395357e-02     5.124230e-02    -1.4082e-01      0.480 (TRAH MIcro)
    2     dE    -3.384216e-02     6.039150e-02    -1.4055e-01      0.475 (TRAH MIcro)
    2     dE    -3.605254e-02     1.730051e-01    -1.5627e-01      0.480 (TRAH MIcro)
    2     dE    -2.723524e-02     6.552785e-02    -2.3242e-01      0.346 (TRAH MIcro)
    2     dE    -2.811995e-02     3.401075e-02    -2.3774e-01      0.349 (TRAH MIcro)
    2     dE    -2.874614e-02     2.329535e-02    -2.3876e-01      0.355 (TRAH MIcro)
    2     dE    -3.192756e-02     2.728945e-02    -2.3976e-01      0.389 (TRAH MIcro)
    2     dE    -3.628326e-02     1.578460e-02    -2.4042e-01      0.432 (TRAH MIcro)
    2     dE    -3.773031e-02     6.631725e-03    -2.4057e-01      0.446 (TRAH MIcro)
    3       -436.240944186083     3.088690e-01                     0.336 (TRAH MAcro)   No
    3     dE    -9.696864e-03     3.163169e-01    -1.9311e-02      0.065 (TRAH MIcro)
    3     dE    -1.277789e-02     1.360261e-01    -2.5307e-02      0.099 (TRAH MIcro)
    3     dE    -1.396183e-02     4.095874e-02    -2.7562e-02      0.114 (TRAH MIcro)
    3     dE    -1.436508e-02     3.479622e-02    -2.8297e-02      0.124 (TRAH MIcro)
    3     dE    -1.452663e-02     2.100151e-02    -2.8560e-02      0.131 (TRAH MIcro)
    3     dE    -1.456472e-02     8.289227e-03    -2.8617e-02      0.134 (TRAH MIcro)
    4       -436.255659963517     3.121227e-02                     0.403 (TRAH MAcro)   No
    4     dE    -9.121921e-05     4.855227e-02    -1.8243e-04      0.006 (TRAH MIcro)
    4     dE    -2.032114e-04     3.124521e-02    -4.0627e-04      0.019 (TRAH MIcro)
    4     dE    -3.466984e-04     3.130582e-02    -6.9215e-04      0.042 (TRAH MIcro)
    4     dE    -4.457596e-04     1.835391e-02    -8.8846e-04      0.059 (TRAH MIcro)
    4     dE    -4.779798e-04     8.152945e-03    -9.5129e-04      0.070 (TRAH MIcro)
    4     dE    -4.903518e-04     6.908492e-03    -9.7485e-04      0.077 (TRAH MIcro)
    4     dE    -4.962113e-04     5.625643e-03    -9.8571e-04      0.083 (TRAH MIcro)
    4     dE    -4.989131e-04     2.032724e-03    -9.9066e-04      0.085 (TRAH MIcro)
    5       -436.256224548434     1.323166e-02                     0.484 (TRAH MAcro)   No
    5     dE    -1.424648e-05     1.575868e-02    -2.8493e-05      0.002 (TRAH MIcro)
    5     dE    -2.699127e-05     5.752432e-03    -5.3981e-05      0.006 (TRAH MIcro)
    5     dE    -4.987475e-05     1.292321e-02    -9.9700e-05      0.022 (TRAH MIcro)
    5     dE    -6.754461e-05     1.106601e-02    -1.3489e-04      0.038 (TRAH MIcro)
    5     dE    -7.783850e-05     3.934176e-03    -1.5530e-04      0.049 (TRAH MIcro)
    5     dE    -7.913844e-05     2.261041e-03    -1.5787e-04      0.051 (TRAH MIcro)
    5     dE    -7.984524e-05     1.050271e-03    -1.5927e-04      0.052 (TRAH MIcro)
    6       -436.256317478136     4.695861e-03                     0.581 (TRAH MAcro)   No
    6     dE    -2.118127e-06     5.746868e-03    -4.2363e-06      0.001 (TRAH MIcro)
    6     dE    -3.676598e-06     2.121839e-03    -7.3532e-06      0.002 (TRAH MIcro)
    6     dE    -4.782664e-06     3.109325e-03    -9.5652e-06      0.004 (TRAH MIcro)
    6     dE    -7.253082e-06     3.765212e-03    -1.4505e-05      0.011 (TRAH MIcro)
    6     dE    -8.987430e-06     2.014792e-03    -1.7970e-05      0.017 (TRAH MIcro)
    6     dE    -9.212963e-06     9.157047e-04    -1.8420e-05      0.018 (TRAH MIcro)
    6     dE    -9.275682e-06     4.020233e-04    -1.8545e-05      0.018 (TRAH MIcro)
    7       -436.256327519636     6.413244e-04                           (NR   MAcro)
    7     dE    -5.154605e-08     4.450232e-04                           (NR   MIcro)
    7     dE    -7.542588e-08     3.796829e-04                           (NR   MIcro)
    7     dE    -1.242195e-07     5.682867e-04                           (NR   MIcro)
    7     dE    -1.734248e-07     4.267336e-04                           (NR   MIcro)
    7     dE    -1.858701e-07     2.393962e-04                           (NR   MIcro)
    7     dE    -1.902398e-07     9.190928e-05                           (NR   MIcro)
    7     dE    -1.911827e-07     4.317340e-05                           (NR   MIcro)
    7     dE    -1.913493e-07     1.756672e-05                           (NR   MIcro)
    7     dE    -1.913898e-07     1.166509e-05                           (NR   MIcro)
    7     dE    -1.914038e-07     5.122664e-06                           (NR   MIcro)
    7     dE    -1.914074e-07     2.896752e-06                           (NR   MIcro)
    8       -436.256327713724     1.382196e-05                           (NR   MAcro)
    8     dE    -3.115801e-11     8.257634e-06                           (NR   MIcro)
    8     dE    -4.011697e-11     7.186896e-06                           (NR   MIcro)
    8     dE    -5.759415e-11     1.086161e-05                           (NR   MIcro)
    8     dE    -8.277638e-11     6.262325e-06                           (NR   MIcro)
    8     dE    -8.616839e-11     3.457299e-06                           (NR   MIcro)
    8     dE    -8.727508e-11     1.863131e-06                           (NR   MIcro)
    8     dE    -8.751086e-11     9.036156e-07                           (NR   MIcro)
    9       -436.256327713845     9.076323e-07                           (NR   MAcro)

               *****************************************************
               *                     SUCCESS                       *
               *           SCF CONVERGED AFTER 109 CYCLES          *
               *****************************************************

Old exchange energy                            =    -11.067842800 Eh
New exchange energy                            =    -11.067855082 Eh
Exchange energy change after final integration =     -0.000012282 Eh
Total energy after final integration           =   -436.256339995 Eh
Final COS-X integration done in                =    11.054 sec

----------------
TOTAL SCF ENERGY
----------------

Total Energy       :         -436.25634000 Eh          -11871.13853 eV

Components:
Nuclear Repulsion  :          413.25115568 Eh           11245.13564 eV
Electronic Energy  :         -849.50749567 Eh          -23116.27417 eV
One Electron Energy:        -1399.94806395 Eh          -38094.52351 eV
Two Electron Energy:          550.44056827 Eh           14978.24934 eV
Max COSX asymmetry :            0.00000177 Eh               0.00005 eV

Virial components:
Potential Energy   :         -868.59738288 Eh          -23635.73641 eV
Kinetic Energy     :          432.34104289 Eh           11764.59788 eV
Virial Ratio       :            2.00905604


DFT components:
N(Alpha)           :       31.999986813899 electrons
N(Beta)            :       31.999986813899 electrons
N(Total)           :       63.999973627798 electrons
E(X)               :      -44.236897176916 Eh       
E(C)               :       -2.581346937308 Eh       
E(XC)              :      -46.818244114224 Eh       
DFET-embed. en.    :        0.000000000000 Eh       

---------------
SCF CONVERGENCE
---------------

  Last Energy change         ...   -1.2085e-10  Tolerance :   1.0000e-08
  Last Orbital Gradient      ...    9.0763e-07  Tolerance :   1.0000e-05
  Last Orbital Rotation      ...    5.8429e-05

             **** THE GBW FILE WAS UPDATED (nitrobenzen_opt.gbw) ****
             **** DENSITY nitrobenzen_opt.scfp WAS UPDATED ****
             **** ENERGY FILE WAS UPDATED (nitrobenzen_opt.en.tmp) ****
             **** THE GBW FILE WAS UPDATED (nitrobenzen_opt.gbw) ****
             **** DENSITY nitrobenzen_opt.scfp WAS UPDATED ****
----------------
ORBITAL ENERGIES
----------------

  NO   OCC          E(Eh)            E(eV) 
   0   2.0000     -19.391460      -527.6685 
   1   2.0000     -19.370595      -527.1007 
   2   2.0000     -14.740572      -401.1114 
   3   2.0000     -10.443690      -284.1873 
   4   2.0000     -10.409182      -283.2482 
   5   2.0000     -10.408542      -283.2308 
   6   2.0000     -10.395504      -282.8760 
   7   2.0000     -10.391965      -282.7797 
   8   2.0000     -10.388796      -282.6935 
   9   2.0000      -1.343739       -36.5650 
  10   2.0000      -1.162386       -31.6301 
  11   2.0000      -1.075435       -29.2641 
  12   2.0000      -1.004929       -27.3455 
  13   2.0000      -0.946097       -25.7446 
  14   2.0000      -0.894282       -24.3346 
  15   2.0000      -0.807500       -21.9732 
  16   2.0000      -0.777710       -21.1626 
  17   2.0000      -0.739338       -20.1184 
  18   2.0000      -0.695698       -18.9309 
  19   2.0000      -0.691525       -18.8173 
  20   2.0000      -0.684715       -18.6320 
  21   2.0000      -0.646542       -17.5933 
  22   2.0000      -0.636455       -17.3188 
  23   2.0000      -0.621777       -16.9194 
  24   2.0000      -0.568695       -15.4750 
  25   2.0000      -0.561446       -15.2777 
  26   2.0000      -0.545600       -14.8465 
  27   2.0000      -0.509272       -13.8580 
  28   2.0000      -0.490570       -13.3491 
  29   2.0000      -0.472106       -12.8466 
  30   2.0000      -0.464242       -12.6327 
  31   2.0000      -0.454245       -12.3606 
  32   0.0000      -0.433306       -11.7909 
  33   0.0000      -0.316507        -8.6126 
  34   0.0000      -0.206471        -5.6184 
  35   0.0000      -0.184114        -5.0100 
  36   0.0000      -0.108611        -2.9555 
  37   0.0000      -0.079623        -2.1667 
  38   0.0000      -0.055583        -1.5125 
  39   0.0000      -0.041787        -1.1371 
  40   0.0000      -0.040059        -1.0901 
  41   0.0000      -0.010171        -0.2768 
  42   0.0000       0.003047         0.0829 
  43   0.0000       0.010278         0.2797 
  44   0.0000       0.039619         1.0781 
  45   0.0000       0.087368         2.3774 
  46   0.0000       0.106604         2.9008 
  47   0.0000       0.112104         3.0505 
  48   0.0000       0.150331         4.0907 
  49   0.0000       0.172018         4.6809 
  50   0.0000       0.226359         6.1595 
  51   0.0000       0.230778         6.2798 
  52   0.0000       0.250366         6.8128 
  53   0.0000       0.258073         7.0225 
  54   0.0000       0.269924         7.3450 
  55   0.0000       0.286095         7.7850 
  56   0.0000       0.308774         8.4022 
  57   0.0000       0.315445         8.5837 
  58   0.0000       0.328824         8.9478 
  59   0.0000       0.348613         9.4862 
  60   0.0000       0.353711         9.6250 
  61   0.0000       0.390357        10.6221 
  62   0.0000       0.414039        11.2666 
  63   0.0000       0.420053        11.4302 
  64   0.0000       0.458939        12.4884 
  65   0.0000       0.464940        12.6517 
  66   0.0000       0.494611        13.4590 
  67   0.0000       0.497239        13.5306 
  68   0.0000       0.502157        13.6644 
  69   0.0000       0.528352        14.3772 
  70   0.0000       0.547119        14.8879 
  71   0.0000       0.549121        14.9423 
  72   0.0000       0.550911        14.9910 
  73   0.0000       0.577789        15.7224 
  74   0.0000       0.605195        16.4682 
  75   0.0000       0.617189        16.7946 
  76   0.0000       0.649137        17.6639 
  77   0.0000       0.699123        19.0241 
  78   0.0000       0.739399        20.1201 
  79   0.0000       0.759818        20.6757 
  80   0.0000       0.788632        21.4598 
  81   0.0000       0.797462        21.7000 
  82   0.0000       0.836466        22.7614 
  83   0.0000       0.855386        23.2762 
  84   0.0000       0.877695        23.8833 
  85   0.0000       0.955960        26.0130 
  86   0.0000       0.985826        26.8257 
  87   0.0000       0.997709        27.1490 
  88   0.0000       1.033207        28.1150 
  89   0.0000       1.052026        28.6271 
  90   0.0000       1.063532        28.9402 
  91   0.0000       1.088951        29.6319 
  92   0.0000       1.092410        29.7260 
  93   0.0000       1.107175        30.1278 
  94   0.0000       1.153182        31.3797 
  95   0.0000       1.156099        31.4591 
  96   0.0000       1.173810        31.9410 
  97   0.0000       1.182841        32.1867 
  98   0.0000       1.195992        32.5446 
  99   0.0000       1.201757        32.7015 
 100   0.0000       1.280298        34.8387 
 101   0.0000       1.336590        36.3705 
 102   0.0000       1.475709        40.1561 
 103   0.0000       1.486258        40.4431 
 104   0.0000       1.500583        40.8329 
 105   0.0000       1.538841        41.8740 
 106   0.0000       1.549094        42.1530 
 107   0.0000       1.564595        42.5748 
 108   0.0000       1.574183        42.8357 
 109   0.0000       1.584023        43.1034 
 110   0.0000       1.599290        43.5189 
 111   0.0000       1.612642        43.8822 
 112   0.0000       1.638392        44.5829 
 113   0.0000       1.683119        45.8000 
 114   0.0000       1.718245        46.7558 
 115   0.0000       1.760983        47.9188 
 116   0.0000       1.790896        48.7328 
 117   0.0000       1.808273        49.2056 
 118   0.0000       1.834395        49.9164 
 119   0.0000       1.904793        51.8320 
 120   0.0000       1.914721        52.1022 
 121   0.0000       1.922529        52.3147 
 122   0.0000       1.947023        52.9812 
 123   0.0000       1.978759        53.8448 
 124   0.0000       1.982662        53.9510 
 125   0.0000       2.069496        56.3138 
 126   0.0000       2.081612        56.6436 
 127   0.0000       2.098993        57.1165 
 128   0.0000       2.116018        57.5798 
 129   0.0000       2.147155        58.4270 
 130   0.0000       2.200449        59.8773 
 131   0.0000       2.202463        59.9321 
 132   0.0000       2.359227        64.1978 
 133   0.0000       2.380962        64.7893 
 134   0.0000       2.408960        65.5511 
 135   0.0000       2.424229        65.9666 
 136   0.0000       2.434895        66.2569 
 137   0.0000       2.450753        66.6884 
 138   0.0000       2.456664        66.8492 
 139   0.0000       2.488666        67.7201 
 140   0.0000       2.500548        68.0434 
 141   0.0000       2.537627        69.0523 
 142   0.0000       2.547714        69.3268 
 143   0.0000       2.563990        69.7697 
 144   0.0000       2.674158        72.7675 
 145   0.0000       2.692815        73.2752 
 146   0.0000       2.727703        74.2246 
 147   0.0000       2.813338        76.5548 
 148   0.0000       2.841714        77.3270 
 149   0.0000       2.889502        78.6274 
 150   0.0000       2.937974        79.9463 
 151   0.0000       3.073581        83.6364 
 152   0.0000       3.084057        83.9215 
 153   0.0000       3.325321        90.4866 
 154   0.0000       3.464518        94.2743 
 155   0.0000       3.565676        97.0270 

                    ********************************
                    * MULLIKEN POPULATION ANALYSIS *
                    ********************************

-----------------------
MULLIKEN ATOMIC CHARGES
-----------------------
   0 H :    0.062782
   1 C :    0.043070
   2 C :    0.087283
   3 H :    0.062319
   4 C :    0.050247
   5 H :    0.056948
   6 C :    0.022914
   7 H :    0.008460
   8 C :    0.195252
   9 H :    0.328967
  10 C :    0.042066
  11 H :    0.064569
  12 N :    0.233105
  13 O :   -0.133225
  14 O :   -0.124757
Sum of atomic charges:    1.0000000

--------------------------------
MULLIKEN REDUCED ORBITAL CHARGES
--------------------------------
  0 H s       :     0.913819  s :     0.913819
      pz      :     0.004690  p :     0.023399
      px      :     0.003070
      py      :     0.015639
  1 C s       :     3.180791  s :     3.180791
      pz      :     0.907096  p :     2.741599
      px      :     0.939763
      py      :     0.894740
      dz2     :     0.002743  d :     0.034540
      dxz     :     0.005150
      dyz     :     0.003289
      dx2y2   :     0.012083
      dxy     :     0.011275
  2 C s       :     3.176032  s :     3.176032
      pz      :     0.866002  p :     2.701232
      px      :     0.905398
      py      :     0.929832
      dz2     :     0.002997  d :     0.035452
      dxz     :     0.004181
      dyz     :     0.004916
      dx2y2   :     0.011493
      dxy     :     0.011865
  3 H s       :     0.914524  s :     0.914524
      pz      :     0.003603  p :     0.023157
      px      :     0.013120
      py      :     0.006434
  4 C s       :     3.183372  s :     3.183372
      pz      :     0.894942  p :     2.731367
      px      :     0.899634
      py      :     0.936790
      dz2     :     0.002855  d :     0.035014
      dxz     :     0.004082
      dyz     :     0.004769
      dx2y2   :     0.011110
      dxy     :     0.012198
  5 H s       :     0.919669  s :     0.919669
      pz      :     0.004170  p :     0.023384
      px      :     0.013154
      py      :     0.006060
  6 C s       :     3.255196  s :     3.255196
      pz      :     0.890919  p :     2.687598
      px      :     0.973360
      py      :     0.823319
      dz2     :     0.002756  d :     0.034292
      dxz     :     0.006910
      dyz     :     0.003011
      dx2y2   :     0.011288
      dxy     :     0.010328
  7 H s       :     0.968310  s :     0.968310
      pz      :     0.004494  p :     0.023230
      px      :     0.003335
      py      :     0.015402
  8 C s       :     2.971081  s :     2.971081
      pz      :     1.061570  p :     2.781632
      px      :     0.835203
      py      :     0.884860
      dz2     :     0.005235  d :     0.052034
      dxz     :     0.007028
      dyz     :     0.006636
      dx2y2   :     0.013715
      dxy     :     0.019420
  9 H s       :     0.670900  s :     0.670900
      pz      :     0.000068  p :     0.000134
      px      :     0.000018
      py      :     0.000048
 10 C s       :     3.276676  s :     3.276676
      pz      :     0.845039  p :     2.646781
      px      :     0.862021
      py      :     0.939721
      dz2     :     0.003120  d :     0.034477
      dxz     :     0.004089
      dyz     :     0.005805
      dx2y2   :     0.012051
      dxy     :     0.009412
 11 H s       :     0.911558  s :     0.911558
      pz      :     0.004013  p :     0.023873
      px      :     0.013468
      py      :     0.006391
 12 N s       :     3.353365  s :     3.353365
      pz      :     1.178213  p :     3.334121
      px      :     1.107655
      py      :     1.048252
      dz2     :     0.005764  d :     0.079409
      dxz     :     0.008696
      dyz     :     0.014492
      dx2y2   :     0.021965
      dxy     :     0.028492
 13 O s       :     3.900282  s :     3.900282
      pz      :     1.402913  p :     4.213810
      px      :     1.722542
      py      :     1.088355
      dz2     :     0.002553  d :     0.019133
      dxz     :     0.000314
      dyz     :     0.005709
      dx2y2   :     0.007025
      dxy     :     0.003531
 14 O s       :     3.936783  s :     3.936783
      pz      :     1.518427  p :     4.174786
      px      :     1.219530
      py      :     1.436829
      dz2     :     0.001917  d :     0.013187
      dxz     :     0.002568
      dyz     :     0.000727
      dx2y2   :     0.003014
      dxy     :     0.004961


                     *******************************
                     * LOEWDIN POPULATION ANALYSIS *
                     *******************************

----------------------
LOEWDIN ATOMIC CHARGES
----------------------
   0 H :    0.063914
   1 C :    0.040745
   2 C :    0.067152
   3 H :    0.062670
   4 C :    0.049301
   5 H :    0.061088
   6 C :    0.053266
   7 H :    0.040335
   8 C :   -0.030145
   9 H :    0.325631
  10 C :    0.087447
  11 H :    0.065879
  12 N :    0.340212
  13 O :   -0.101185
  14 O :   -0.126309

-------------------------------
LOEWDIN REDUCED ORBITAL CHARGES
-------------------------------
  0 H s       :     0.866636  s :     0.866636
      pz      :     0.014492  p :     0.069450
      px      :     0.010058
      py      :     0.044900
  1 C s       :     2.862695  s :     2.862695
      pz      :     0.906418  p :     3.007446
      px      :     1.055323
      py      :     1.045705
      dz2     :     0.006511  d :     0.089113
      dxz     :     0.011425
      dyz     :     0.006046
      dx2y2   :     0.033584
      dxy     :     0.031548
  2 C s       :     2.867037  s :     2.867037
      pz      :     0.862420  p :     2.975344
      px      :     1.064042
      py      :     1.048882
      dz2     :     0.006970  d :     0.090467
      dxz     :     0.008280
      dyz     :     0.010997
      dx2y2   :     0.031707
      dxy     :     0.032514
  3 H s       :     0.868196  s :     0.868196
      pz      :     0.011366  p :     0.069135
      px      :     0.038138
      py      :     0.019631
  4 C s       :     2.863789  s :     2.863789
      pz      :     0.891456  p :     2.996953
      px      :     1.051518
      py      :     1.053978
      dz2     :     0.006667  d :     0.089958
      dxz     :     0.008191
      dyz     :     0.010559
      dx2y2   :     0.030782
      dxy     :     0.033759
  5 H s       :     0.869567  s :     0.869567
      pz      :     0.013056  p :     0.069345
      px      :     0.037746
      py      :     0.018543
  6 C s       :     2.867243  s :     2.867243
      pz      :     0.896126  p :     2.990525
      px      :     1.053444
      py      :     1.040956
      dz2     :     0.006418  d :     0.088965
      dxz     :     0.015218
      dyz     :     0.005783
      dx2y2   :     0.032241
      dxy     :     0.029304
  7 H s       :     0.888302  s :     0.888302
      pz      :     0.014163  p :     0.071363
      px      :     0.011674
      py      :     0.045526
  8 C s       :     2.838670  s :     2.838670
      pz      :     1.045551  p :     3.056341
      px      :     0.962366
      py      :     1.048424
      dz2     :     0.012405  d :     0.135134
      dxz     :     0.015135
      dyz     :     0.014310
      dx2y2   :     0.040165
      dxy     :     0.053118
  9 H s       :     0.674214  s :     0.674214
      pz      :     0.000083  p :     0.000156
      px      :     0.000018
      py      :     0.000055
 10 C s       :     2.870681  s :     2.870681
      pz      :     0.846445  p :     2.953430
      px      :     1.080243
      py      :     1.026742
      dz2     :     0.007085  d :     0.088442
      dxz     :     0.007972
      dyz     :     0.013022
      dx2y2   :     0.032838
      dxy     :     0.027526
 11 H s       :     0.860945  s :     0.860945
      pz      :     0.012572  p :     0.073177
      px      :     0.040088
      py      :     0.020517
 12 N s       :     3.116474  s :     3.116474
      pz      :     1.137326  p :     3.385335
      px      :     1.146709
      py      :     1.101300
      dz2     :     0.011314  d :     0.157978
      dxz     :     0.015139
      dyz     :     0.025802
      dx2y2   :     0.047246
      dxy     :     0.058477
 13 O s       :     3.682603  s :     3.682603
      pz      :     1.421152  p :     4.383302
      px      :     1.720819
      py      :     1.241331
      dz2     :     0.004919  d :     0.035280
      dxz     :     0.000444
      dyz     :     0.009310
      dx2y2   :     0.015356
      dxy     :     0.005251
 14 O s       :     3.773336  s :     3.773336
      pz      :     1.530615  p :     4.330084
      px      :     1.320382
      py      :     1.479086
      dz2     :     0.003722  d :     0.022889
      dxz     :     0.003464
      dyz     :     0.001057
      dx2y2   :     0.005024
      dxy     :     0.009622


                      *****************************
                      * MAYER POPULATION ANALYSIS *
                      *****************************

  NA   - Mulliken gross atomic population
  ZA   - Total nuclear charge
  QA   - Mulliken gross atomic charge
  VA   - Mayer's total valence
  BVA  - Mayer's bonded valence
  FA   - Mayer's free valence

  ATOM       NA         ZA         QA         VA         BVA        FA
  0 H      0.9372     1.0000     0.0628     0.9824     0.9824    -0.0000
  1 C      5.9569     6.0000     0.0431     3.8415     3.8415    -0.0000
  2 C      5.9127     6.0000     0.0873     3.8046     3.8046    -0.0000
  3 H      0.9377     1.0000     0.0623     0.9809     0.9809    -0.0000
  4 C      5.9498     6.0000     0.0502     3.8482     3.8482    -0.0000
  5 H      0.9431     1.0000     0.0569     0.9819     0.9819     0.0000
  6 C      5.9771     6.0000     0.0229     3.8446     3.8446    -0.0000
  7 H      0.9915     1.0000     0.0085     1.0235     1.0235     0.0000
  8 C      5.8047     6.0000     0.1953     3.7218     3.7218     0.0000
  9 H      0.6710     1.0000     0.3290     0.8932     0.8932     0.0000
 10 C      5.9579     6.0000     0.0421     3.8437     3.8437    -0.0000
 11 H      0.9354     1.0000     0.0646     1.0089     1.0089    -0.0000
 12 N      6.7669     7.0000     0.2331     3.8151     3.8151     0.0000
 13 O      8.1332     8.0000    -0.1332     2.1518     2.1518     0.0000
 14 O      8.1248     8.0000    -0.1248     2.0955     2.0955    -0.0000

  Mayer bond orders larger than 0.100000
B(  0-H ,  1-C ) :   0.9847 B(  1-C ,  2-C ) :   1.3632 B(  1-C , 10-C ) :   1.3334 
B(  2-C ,  3-H ) :   0.9888 B(  2-C ,  4-C ) :   1.3262 B(  4-C ,  5-H ) :   0.9848 
B(  4-C ,  6-C ) :   1.3339 B(  4-C ,  9-H ) :   0.1045 B(  6-C ,  7-H ) :   0.9851 
B(  6-C ,  8-C ) :   1.3071 B(  8-C , 10-C ) :   1.2632 B(  8-C , 12-N ) :   0.9859 
B(  9-H , 10-C ) :   0.1093 B(  9-H , 13-O ) :   0.2193 B(  9-H , 14-O ) :   0.3107 
B( 10-C , 11-H ) :   0.9888 B( 12-N , 13-O ) :   1.4521 B( 12-N , 14-O ) :   1.3218 
B( 13-O , 14-O ) :   0.2409 

-------
TIMINGS
-------

Total SCF time: 0 days 0 hours 5 min 18 sec 

Total time                  ....     318.066 sec
Sum of individual times     ....     313.958 sec  ( 98.7%)

Fock matrix formation       ....     310.031 sec  ( 97.5%)
  Split-RI-J                ....      41.778 sec  ( 13.5% of F)
  Chain of spheres X        ....     219.728 sec  ( 70.9% of F)
  XC integration            ....      48.306 sec  ( 15.6% of F)
    Basis function eval.    ....      16.382 sec  ( 33.9% of XC)
    Density eval.           ....      13.168 sec  ( 27.3% of XC)
    XC-Functional eval.     ....       2.984 sec  (  6.2% of XC)
    XC-Potential eval.      ....      11.876 sec  ( 24.6% of XC)
Diagonalization             ....       0.138 sec  (  0.0%)
Density matrix formation    ....       0.030 sec  (  0.0%)
Population analysis         ....       0.025 sec  (  0.0%)
Initial guess               ....       0.693 sec  (  0.2%)
Orbital Transformation      ....       0.178 sec  (  0.1%)
Orbital Orthonormalization  ....       0.000 sec  (  0.0%)
DIIS solution               ....       0.243 sec  (  0.1%)
SOSCF solution              ....       0.000 sec  (  0.0%)
Grid generation             ....       2.620 sec  (  0.8%)

Maximum memory used throughout the entire SCF-calculation: 69.5 MB


-------------------------------------------------------------------------------
                          DFT DISPERSION CORRECTION                            
                                                                               
                                 DFTD4 V2.5                                    
-------------------------------------------------------------------------------
The B3LYP functional is recognized
Active option DFTDOPT                   ...         5   

Starting D4
-------------------------   ----------------
Dispersion correction           -0.021980761
-------------------------   ----------------


-------------------------   --------------------
FINAL SINGLE POINT ENERGY      -436.278320756470
-------------------------   --------------------

------------------------------------------------------------------------------
                         ORCA SCF GRADIENT CALCULATION
------------------------------------------------------------------------------

 ... reading COSX grid (gridx3)
Gradient of the Kohn-Sham DFT energy:
Kohn-Sham wavefunction type      ... RKS
Hartree-Fock exchange scaling    ...    0.200
Number of operators              ...    1
Number of atoms                  ...   15
Basis set dimensions             ...  156
Integral neglect threshold       ... 2.5e-11
Integral primitive cutoff        ... 2.5e-12
SHARK Integral package           ... ON

Nuc. rep. gradient       (SHARK) ... done (  0.0 sec)
HCore & Overlap gradient (SHARK) ... done (  0.3 sec)
RI-J gradient            (SHARK) ... done (  1.4 sec)
COSX-gradient                    ... done ( 12.5 sec)
Exchange-correlation gradient    ... done
Dispersion correction            ... Starting D4


------------------- 
Dispersion Gradient 
------------------- 
   1  :   -0.000012510   -0.000164623    0.000043098
   2  :   -0.000162080   -0.000488433    0.000122809
   3  :   -0.000393521   -0.000228079    0.000039528
   4  :   -0.000137753   -0.000079083    0.000012984
   5  :   -0.000522265    0.000087876   -0.000045691
   6  :   -0.000157379    0.000067842   -0.000026525
   7  :   -0.000303057    0.000244235   -0.000048285
   8  :   -0.000062678    0.000183764   -0.000040556
   9  :    0.000224630    0.000101412   -0.000000474
  10  :   -0.000024217    0.000166987   -0.000162348
  11  :    0.000117460   -0.000394668    0.000115531
  12  :    0.000141622   -0.000141392    0.000045774
  13  :    0.000507249    0.000265321   -0.000025245
  14  :    0.000311968    0.000353495   -0.000041339
  15  :    0.000472532    0.000025346    0.000010738

  |G| =    0.001451432

done

------------------
CARTESIAN GRADIENT
------------------

   1   H   :   -0.001770275    0.002832073   -0.001312855
   2   C   :    0.003284394    0.000747175    0.002017212
   3   C   :    0.001982213    0.006837170   -0.001246092
   4   H   :    0.003144209    0.001659492   -0.000565890
   5   C   :    0.001323590   -0.002955677    0.001319546
   6   H   :    0.002236914   -0.002832204    0.000067727
   7   C   :    0.000700616   -0.012534435    0.003408896
   8   H   :   -0.002602026   -0.001671271    0.000053335
   9   C   :    0.027303535    0.001391127   -0.003613186
  10   H   :   -0.005645923    0.001611332   -0.004517203
  11   C   :   -0.014512889    0.012315345   -0.004346244
  12   H   :   -0.004903232   -0.002417181   -0.001106088
  13   N   :   -0.124870533   -0.020463876    0.010672307
  14   O   :    0.010897260    0.076068510   -0.016599318
  15   O   :    0.103543502   -0.060560106    0.015663562

Difference to translation invariance:
           :    0.0001113554    0.0000274737   -0.0001042923

Difference to rotation invariance:
           :    0.0002568238    0.0007467209    0.0007085674

Norm of the cartesian gradient     ...    0.1961257908
RMS gradient                       ...    0.0292367067
MAX gradient                       ...    0.1248705329

-------
TIMINGS
-------

Total SCF gradient time            ...       20.461 sec

One electron gradient       ....       0.257 sec  (  1.3%)
RI-J Coulomb gradient       ....       1.377 sec  (  6.7%)
COSX gradient               ....      12.498 sec  ( 61.1%)
XC gradient                 ....       5.473 sec  ( 26.7%)

Maximum memory used throughout the entire SCFGRAD-calculation: 55.2 MB
------------------------------------------------------------------------------
                         ORCA GEOMETRY RELAXATION STEP
------------------------------------------------------------------------------

Reading the OPT-File                    .... done
Getting information on internals        .... done
Copying old internal coords+grads       .... done
Making the new internal coordinates     .... (new redundants).... done
Validating the new internal coordinates .... (new redundants).... done
Calculating the B-matrix                .... done
Calculating the G,G- and P matrices     .... done
Transforming gradient to internals      .... done
Projecting the internal gradient        .... done
Number of atoms                         ....  15
Number of internal coordinates          ....  74
Current Energy                          ....  -436.278320756 Eh
Current gradient norm                   ....     0.196125791 Eh/bohr
Maximum allowed component of the step   ....  0.300
Current trust radius                    ....  0.300
Evaluating the initial hessian          ....  (Almloef) done
Projecting the Hessian                  .... done
Forming the augmented Hessian           .... done
Diagonalizing the augmented Hessian     .... done
Last element of RFO vector              ....  0.953222392
Lowest eigenvalues of augmented Hessian:
 -0.042017861  0.002166608  0.014245273  0.025198927  0.025443312
Length of the computed step             ....  0.317103193
Warning: the length of the step is outside the trust region - taking restricted step instead
The input lambda is                     ....    -0.042018
   iter:   1  x=   -0.050871  g=    1.192201 f(x)=     0.010554
   iter:   2  x=   -0.052904  g=    0.841522 f(x)=     0.001711
   iter:   3  x=   -0.052977  g=    0.786201 f(x)=     0.000057
   iter:   4  x=   -0.052977  g=    0.784339 f(x)=     0.000000
   iter:   5  x=   -0.052977  g=    0.784337 f(x)=     0.000000
   iter:   6  x=   -0.052977  g=    0.784337 f(x)=     0.000000
The output lambda is                    ....    -0.052977 (6 iterations)
The final length of the internal step   ....  0.300000000
Converting the step to cartesian space:
 Initial RMS(Int)=    0.0348742916
Transforming coordinates:
 Iter   0:  RMS(Cart)=    0.0518085100 RMS(Int)=    1.6308436572
 Iter   1:  RMS(Cart)=    0.0007249135 RMS(Int)=    0.0005479099
 Iter   2:  RMS(Cart)=    0.0000327491 RMS(Int)=    0.0000223045
 Iter   3:  RMS(Cart)=    0.0000025574 RMS(Int)=    0.0000018038
 Iter   4:  RMS(Cart)=    0.0000002341 RMS(Int)=    0.0000001475
 Iter   5:  RMS(Cart)=    0.0000000221 RMS(Int)=    0.0000000126
done
Storing new coordinates                 .... done

[...]
  0   -436.3693557586   0.000000000000 0.00427226  0.00014256  0.0225131 0.7000
                      *** Initiating the SOSCF procedure ***
                      *** Re-Reading the Fockian *** 
                      *** Removing any level shift *** 
ITER      Energy       Delta-E        Grad      Rot      Max-DP    RMS-DP
  1   -436.37004471  -0.0006889556  0.002744  0.002744  0.014048  0.000459
               *** Restarting incremental Fock matrix formation ***
  2   -436.37197307  -0.0019283585  0.001504  0.003678  0.003328  0.000126
  3   -436.37205478  -0.0000817068  0.000303  0.001838  0.001348  0.000044
  4   -436.37205181   0.0000029676  0.000493  0.000694  0.000912  0.000025
  5   -436.37205732  -0.0000055097  0.000182  0.000798  0.000605  0.000023
  6   -436.37205605   0.0000012704  0.000269  0.000629  0.000482  0.000015
  7   -436.37205800  -0.0000019500  0.000044  0.000241  0.000292  0.000008
  8   -436.37205785   0.0000001535  0.000097  0.000189  0.000226  0.000005
  9   -436.37205805  -0.0000002027  0.000021  0.000060  0.000074  0.000003
 10   -436.37205803   0.0000000214  0.000043  0.000043  0.000046  0.000002
 11   -436.37205806  -0.0000000309  0.000004  0.000015  0.000019  0.000001
 12   -436.37205806  -0.0000000006  0.000007  0.000010  0.000012  0.000000
                 **** Energy Check signals convergence ****
              ***Rediagonalizing the Fockian in SOSCF/NRSCF***

               *****************************************************
               *                     SUCCESS                       *
               *           SCF CONVERGED AFTER  13 CYCLES          *
               *****************************************************

Old exchange energy                            =    -11.111659500 Eh
New exchange energy                            =    -11.111690113 Eh
Exchange energy change after final integration =     -0.000030612 Eh
Total energy after final integration           =   -436.372088671 Eh
Final COS-X integration done in                =    13.061 sec
Total Energy       :         -436.37208867 Eh          -11874.28821 eV
  Last Energy change         ...    1.9479e-09  Tolerance :   1.0000e-08
  Last MAX-Density change    ...    4.4409e-15  Tolerance :   1.0000e-07
             **** THE GBW FILE WAS UPDATED (nitrobenzen_opt.gbw) ****
             **** DENSITY nitrobenzen_opt.scfp WAS UPDATED ****
             **** ENERGY FILE WAS UPDATED (nitrobenzen_opt.en.tmp) ****
             **** THE GBW FILE WAS UPDATED (nitrobenzen_opt.gbw) ****
             **** DENSITY nitrobenzen_opt.scfp WAS UPDATED ****
Total SCF time: 0 days 0 hours 1 min 44 sec 

Maximum memory used throughout the entire SCF-calculation: 68.9 MB


-------------------------------------------------------------------------------
                          DFT DISPERSION CORRECTION                            
                                                                               
                                 DFTD4 V2.5                                    
-------------------------------------------------------------------------------
Starting D4
-------------------------   ----------------
Dispersion correction           -0.022402813
-------------------------   ----------------


-------------------------   --------------------
FINAL SINGLE POINT ENERGY      -436.394491483686
-------------------------   --------------------

------------------------------------------------------------------------------
                         ORCA SCF GRADIENT CALCULATION
------------------------------------------------------------------------------

 ... reading COSX grid (gridx3)
Gradient of the Kohn-Sham DFT energy:
Kohn-Sham wavefunction type      ... RKS
Hartree-Fock exchange scaling    ...    0.200
Number of operators              ...    1
Number of atoms                  ...   15
Basis set dimensions             ...  156
Integral neglect threshold       ... 2.5e-11
Integral primitive cutoff        ... 2.5e-12
SHARK Integral package           ... ON

Nuc. rep. gradient       (SHARK) ... done (  0.0 sec)
HCore & Overlap gradient (SHARK) ... done (  0.2 sec)
RI-J gradient            (SHARK) ... done (  2.3 sec)
COSX-gradient                    ... done ( 13.1 sec)
Exchange-correlation gradient    ... done
Dispersion correction            ... Starting D4


------------------- 
Dispersion Gradient 
------------------- 
   1  :   -0.000001744   -0.000162371    0.000032988
   2  :   -0.000131420   -0.000519179    0.000097985
   3  :   -0.000380389   -0.000247549    0.000044323
   4  :   -0.000130467   -0.000085541    0.000014250
   5  :   -0.000537922    0.000086388   -0.000007409
   6  :   -0.000152817    0.000060206   -0.000010533
   7  :   -0.000402309    0.000256678   -0.000006082
   8  :   -0.000098976    0.000186692   -0.000009950
   9  :    0.000187083    0.000070045    0.000027232
  10  :    0.000070095    0.000186718   -0.000196927
  11  :    0.000158953   -0.000419553    0.000098049
  12  :    0.000145987   -0.000133502    0.000028883
  13  :    0.000507164    0.000269168   -0.000017977
  14  :    0.000290645    0.000372953   -0.000184887
  15  :    0.000476116    0.000078847    0.000090055

  |G| =    0.001488094

done

------------------
CARTESIAN GRADIENT
------------------

   1   H   :    0.000842312    0.000353346    0.001047248
   2   C   :   -0.000001440   -0.000558672   -0.001368976
   3   C   :   -0.000245974    0.001461923   -0.000037318
   4   H   :   -0.000078039    0.000144057   -0.000336752
   5   C   :   -0.000899485   -0.000663854   -0.000063288
   6   H   :    0.000404726    0.000516956   -0.000200007
   7   C   :   -0.002352068    0.000500025   -0.000852641
   8   H   :    0.000481349   -0.005227318    0.003511239
   9   C   :    0.000092664   -0.005792503    0.003647231
  10   H   :   -0.024816241    0.033805826   -0.060995496
  11   C   :    0.000244080    0.001777844    0.000233902
  12   H   :   -0.000197277   -0.000289143    0.000045082
  13   N   :    0.002636195    0.012359610    0.007019854
  14   O   :    0.024056788   -0.036406155    0.050177940
  15   O   :   -0.000209835   -0.001960913   -0.001884793

Difference to translation invariance:
           :   -0.0000422435    0.0000210293   -0.0000567740

Difference to rotation invariance:
           :    0.0001475930    0.0000565357    0.0003421095

Norm of the cartesian gradient     ...    0.1011056981
RMS gradient                       ...    0.0150719476
MAX gradient                       ...    0.0609954962

-------
TIMINGS
-------

Total SCF gradient time            ...       21.840 sec

One electron gradient       ....       0.230 sec  (  1.1%)
RI-J Coulomb gradient       ....       2.288 sec  ( 10.5%)
COSX gradient               ....      13.076 sec  ( 59.9%)
XC gradient                 ....       5.479 sec  ( 25.1%)

Maximum memory used throughout the entire SCFGRAD-calculation: 55.3 MB
------------------------------------------------------------------------------
                         ORCA GEOMETRY RELAXATION STEP
------------------------------------------------------------------------------

Reading the OPT-File                    .... done
Getting information on internals        .... done
Copying old internal coords+grads       .... done
Making the new internal coordinates     .... (new redundants).... done
Validating the new internal coordinates .... (new redundants).... done
Calculating the B-matrix                .... done
Calculating the G,G- and P matrices     .... done
Transforming gradient to internals      .... done
Projecting the internal gradient        .... done
Number of atoms                         ....  15
Number of internal coordinates          ....  74
Current Energy                          ....  -436.394491484 Eh
Current gradient norm                   ....     0.101105698 Eh/bohr
Maximum allowed component of the step   ....  0.300
Current trust radius                    ....  0.300
Resetting Hessian after 50 BFGS Update Steps....
Build internal Hessian                  .... (Almloef) done
Updating Hessian with the last 5 steps  .... done
Forming the augmented Hessian           .... done
Diagonalizing the augmented Hessian     .... done
Last element of RFO vector              ....  0.786678492
Lowest eigenvalues of augmented Hessian:
 -0.054264408  0.003334437  0.014666345  0.023056012  0.024190810
Length of the computed step             ....  0.784771551
Warning: the length of the step is outside the trust region - taking restricted step instead
The input lambda is                     ....    -0.054264
   iter:   1  x=   -0.091216  g=   14.231329 f(x)=     0.525866
   iter:   2  x=   -0.135014  g=    4.874317 f(x)=     0.213487
   iter:   3  x=   -0.173852  g=    1.966688 f(x)=     0.076383
   iter:   4  x=   -0.192930  g=    1.055437 f(x)=     0.020135
   iter:   5  x=   -0.195975  g=    0.810870 f(x)=     0.002470
   iter:   6  x=   -0.196038  g=    0.779078 f(x)=     0.000049
   iter:   7  x=   -0.196038  g=    0.778442 f(x)=     0.000000
   iter:   8  x=   -0.196038  g=    0.778441 f(x)=     0.000000
The output lambda is                    ....    -0.196038 (8 iterations)
The final length of the internal step   ....  0.300000000
Converting the step to cartesian space:
 Initial RMS(Int)=    0.0348742916
Transforming coordinates:
 Iter   0:  RMS(Cart)=    0.0424246972 RMS(Int)=    0.0346113892
 Iter   1:  RMS(Cart)=    0.0014522717 RMS(Int)=    0.0011036143
 Iter   2:  RMS(Cart)=    0.0000636473 RMS(Int)=    0.0000628126
 Iter   3:  RMS(Cart)=    0.0000020969 RMS(Int)=    0.0000018256
 Iter   4:  RMS(Cart)=    0.0000000912 RMS(Int)=    0.0000000656
done
Storing new coordinates                 .... done

                                .--------------------.
          ----------------------|Geometry convergence|-------------------------
          Item                value                   Tolerance       Converged
          ---------------------------------------------------------------------
          Energy change      -0.0000850868            0.0000050000      NO
          RMS gradient        0.0082035024            0.0001000000      NO
          MAX gradient        0.0643576522            0.0003000000      NO
          RMS step            0.0348742916            0.0020000000      NO
          MAX step            0.2790907772            0.0040000000      NO
          ........................................................
          Max(Bonds)      0.1477      Max(Angles)    2.71
          Max(Dihed)        1.70      Max(Improp)    0.00
          ---------------------------------------------------------------------

The optimization has not yet converged - more geometry cycles are needed


    ---------------------------------------------------------------------------
                         Redundant Internal Coordinates
                            (Angstroem and degrees)

        Definition                    Value    dE/dq     Step     New-Value
    ----------------------------------------------------------------------------
     1. B(C   1,H   0)                1.0917 -0.000067  0.0001    1.0918   
     2. B(C   2,C   1)                1.4047  0.001196 -0.0007    1.4040   
     3. B(H   3,C   2)                1.0928 -0.000046  0.0000    1.0928   
     4. B(C   4,C   2)                1.4041 -0.000792  0.0005    1.4046   
     5. B(H   5,C   4)                1.0916 -0.000123  0.0001    1.0917   
     6. B(C   6,C   4)                1.3879 -0.000531  0.0003    1.3883   
     7. B(H   7,C   6)                1.0837  0.000190 -0.0008    1.0829   
     8. B(C   8,C   6)                1.4068  0.000925 -0.0011    1.4056   
     9. B(H   9,H   7)                2.8288  0.009167 -0.0254    2.8034   
    10. B(C  10,C   8)                1.4083 -0.002040  0.0013    1.4096   
    11. B(C  10,C   1)                1.3888 -0.000274  0.0003    1.3892   
    12. B(H  11,C  10)                1.0910 -0.000049  0.0001    1.0911   
    13. B(N  12,C   8)                1.4269  0.000985 -0.0004    1.4264   
    14. B(O  13,N  12)                1.3073 -0.005943  0.0041    1.3114   
    15. B(O  13,H   9)                1.7151  0.064358 -0.1477    1.5674   
    16. B(O  14,N  12)                1.1955 -0.000362  0.0001    1.1955   
    17. A(H   0,C   1,C   2)          120.59  0.000836   -0.08    120.51   
    18. A(C   2,C   1,C  10)          120.17  0.000099   -0.00    120.17   
    19. A(H   0,C   1,C  10)          119.24 -0.000943    0.09    119.33   
    20. A(C   1,C   2,C   4)          120.95  0.000176   -0.02    120.93   
    21. A(H   3,C   2,C   4)          119.44 -0.000314    0.03    119.47   
    22. A(C   1,C   2,H   3)          119.61  0.000140   -0.01    119.60   
    23. A(H   5,C   4,C   6)          119.52 -0.000487    0.06    119.58   
    24. A(C   2,C   4,C   6)          119.86 -0.000418    0.01    119.86   
    25. A(C   2,C   4,H   5)          120.62  0.000916   -0.08    120.54   
    26. A(H   7,C   6,C   8)          120.40  0.000828   -0.23    120.17   
    27. A(C   4,C   6,C   8)          118.45 -0.000156    0.05    118.50   
    28. A(C   4,C   6,H   7)          120.91 -0.000733    0.19    121.11   
    29. A(C   6,H   7,H   9)          106.92  0.011893   -2.71    104.21   
    30. A(C   6,C   8,C  10)          122.49  0.000921   -0.07    122.41   
    31. A(C  10,C   8,N  12)          116.71  0.001727   -0.10    116.62   
    32. A(C   6,C   8,N  12)          120.78 -0.002654    0.17    120.95   
    33. A(H   7,H   9,O  13)           67.99 -0.012023    2.39     70.38   
    34. A(C   1,C  10,H  11)          121.33 -0.000047    0.01    121.34   
    35. A(C   1,C  10,C   8)          118.05 -0.000588    0.03    118.08   
    36. A(C   8,C  10,H  11)          120.60  0.000654   -0.05    120.55   
    37. A(O  13,N  12,O  14)          114.06  0.002287   -0.20    113.87   
    38. A(C   8,N  12,O  14)          121.47  0.000113   -0.02    121.45   
    39. A(C   8,N  12,O  13)          124.47 -0.002407    0.22    124.69   
    40. A(H   9,O  13,N  12)          132.78  0.010948   -1.46    131.32   
    41. D(C   4,C   2,C   1,C  10)     -1.01  0.000420   -0.13     -1.14   
    42. D(H   3,C   2,C   1,H   0)     -1.06 -0.000627    0.17     -0.89   
    43. D(C   4,C   2,C   1,H   0)    178.38 -0.000457    0.11    178.49   
    44. D(H   3,C   2,C   1,C  10)    179.55  0.000251   -0.07    179.48   
    45. D(H   5,C   4,C   2,H   3)      2.03 -0.000221    0.08      2.11   
    46. D(H   5,C   4,C   2,C   1)   -177.41 -0.000393    0.14   -177.27   
    47. D(C   6,C   4,C   2,C   1)      1.25  0.000200   -0.04      1.21   
    48. D(C   6,C   4,C   2,H   3)   -179.31  0.000372   -0.10   -179.41   
    49. D(C   8,C   6,C   4,H   5)    178.85 -0.000565    0.14    178.99   
    50. D(C   8,C   6,C   4,C   2)      0.17 -0.001171    0.33      0.49   
    51. D(H   7,C   6,C   4,H   5)      4.41  0.000104    0.03      4.44   
    52. D(H   7,C   6,C   4,C   2)   -174.27 -0.000502    0.21   -174.05   
    53. D(H   9,H   7,C   6,C   8)     47.66  0.008511   -1.70     45.96   
    54. D(H   9,H   7,C   6,C   4)   -138.01  0.007772   -1.57   -139.58   
    55. D(C  10,C   8,C   6,C   4)     -1.89  0.001544   -0.45     -2.34   
    56. D(N  12,C   8,C   6,H   7)     -5.56  0.000970   -0.41     -5.97   
    57. D(N  12,C   8,C   6,C   4)    179.98  0.001725   -0.55    179.43   
    58. D(C  10,C   8,C   6,H   7)    172.58  0.000788   -0.32    172.26   
    59. D(O  13,H   9,H   7,C   6)    -67.51  0.006988   -1.54    -69.05   
    60. D(H  11,C  10,C   8,C   6)   -179.71 -0.000240    0.07   -179.64   
    61. D(C   1,C  10,C   8,N  12)   -179.67 -0.001189    0.38   -179.29   
    62. D(C   1,C  10,C   8,C   6)      2.12 -0.000938    0.28      2.41   
    63. D(H  11,C  10,C   1,C   2)   -178.80 -0.000777    0.23   -178.57   
    64. D(H  11,C  10,C   1,H   0)      1.80  0.000077   -0.00      1.80   
    65. D(C   8,C  10,C   1,C   2)     -0.65 -0.000061    0.01     -0.63   
    66. D(H  11,C  10,C   8,N  12)     -1.50 -0.000491    0.16     -1.34   
    67. D(C   8,C  10,C   1,H   0)    179.96  0.000794   -0.22    179.73   
    68. D(O  14,N  12,C   8,C  10)    -23.21  0.003946   -1.19    -24.40   
    69. D(O  14,N  12,C   8,C   6)    155.03  0.003766   -1.10    153.93   
    70. D(O  13,N  12,C   8,C  10)    156.45  0.002596   -0.96    155.49   
    71. D(O  13,N  12,C   8,C   6)    -25.31  0.002416   -0.87    -26.18   
    72. D(H   9,O  13,N  12,O  14)    146.99  0.003020   -0.76    146.23   
    73. D(H   9,O  13,N  12,C   8)    -32.70  0.004286   -0.97    -33.66   
    74. D(N  12,O  13,H   9,H   7)     55.20 -0.003454    1.24     56.44   
    ----------------------------------------------------------------------------




    ----------------------------------------------------------------------------
                                  WARNING !!!
       The optimization did not converge but reached the maximum number of
       optimization cycles.
       Please check your results very carefully.
    ----------------------------------------------------------------------------



                            ***************************************
                            *     ORCA property calculations      *
                            ***************************************

                                    ---------------------
                                    Active property flags
                                    ---------------------
   (+) Dipole Moment


------------------------------------------------------------------------------
                       ORCA ELECTRIC PROPERTIES CALCULATION
------------------------------------------------------------------------------

Dipole Moment Calculation                       ... on
Quadrupole Moment Calculation                   ... off
Polarizability Calculation                      ... off
GBWName                                         ... nitrobenzen_opt.gbw
Electron density                                ... nitrobenzen_opt.scfp
The origin for moment calculation is the CENTER OF MASS  = ( 2.644023,  0.934682 -0.029952)

-------------
DIPOLE MOMENT
-------------
                                X             Y             Z
Electronic contribution:      4.50381       3.64443      -1.16231
Nuclear contribution   :     -5.90508      -2.04069      -0.94388
                        -----------------------------------------
Total Dipole Moment    :     -1.40127       1.60374      -2.10619
                        -----------------------------------------
Magnitude (a.u.)       :      2.99526
Magnitude (Debye)      :      7.61334



--------------------
Rotational spectrum 
--------------------
 
Rotational constants in cm-1:     0.126934     0.040807     0.031671 
Rotational constants in MHz :  3805.380920  1223.371148   949.472313 

 Dipole components along the rotational axes: 
x,y,z [a.u.] :     0.005075    -2.649825     1.396410 
x,y,z [Debye]:     0.012900    -6.735319     3.549393 

 

Timings for individual modules:

Sum of individual times         ...     6749.333 sec (= 112.489 min)
GTO integral calculation        ...       15.490 sec (=   0.258 min)   0.2 %
SCF iterations                  ...     5586.967 sec (=  93.116 min)  82.8 %
SCF Gradient evaluation         ...     1142.487 sec (=  19.041 min)  16.9 %
Geometry relaxation             ...        4.389 sec (=   0.073 min)   0.1 %
                             ****ORCA TERMINATED NORMALLY****
TOTAL RUN TIME: 0 days 1 hours 52 minutes 46 seconds 295 msec
