
                                 *****************
                                 * O   R   C   A *
                                 *****************

                                            #,                                       
                                            ###                                      
                                            ####                                     
                                            #####                                    
                                            ######                                   
                                           ########,                                 
                                     ,,################,,,,,                         
                               ,,#################################,,                 
                          ,,##########################################,,             
                       ,#########################################, ''#####,          
                    ,#############################################,,   '####,        
                  ,##################################################,,,,####,       
                ,###########''''           ''''###############################       
              ,#####''   ,,,,##########,,,,          '''####'''          '####       
            ,##' ,,,,###########################,,,                        '##       
           ' ,,###''''                  '''############,,,                           
         ,,##''                                '''############,,,,        ,,,,,,###''
      ,#''                                            '''#######################'''  
     '                                                          ''''####''''         
             ,#######,   #######,   ,#######,      ##                                
            ,#'     '#,  ##    ##  ,#'     '#,    #''#        ######   ,####,        
            ##       ##  ##   ,#'  ##            #'  '#       #        #'  '#        
            ##       ##  #######   ##           ,######,      #####,   #    #        
            '#,     ,#'  ##    ##  '#,     ,#' ,#      #,         ##   #,  ,#        
             '#######'   ##     ##  '#######'  #'      '#     #####' # '####'        



                  #######################################################
                  #                        -***-                        #
                  #          Department of theory and spectroscopy      #
                  #    Directorship and core code : Frank Neese         #
                  #        Max Planck Institute fuer Kohlenforschung    #
                  #                Kaiser Wilhelm Platz 1               #
                  #                 D-45470 Muelheim/Ruhr               #
                  #                      Germany                        #
                  #                                                     #
                  #                  All rights reserved                #
                  #                        -***-                        #
                  #######################################################



                         Program Version 5.0.4 -  RELEASE  -

 With contributions from (in alphabetic order):
   Daniel Aravena         : Magnetic Suceptibility
   Michael Atanasov       : Ab Initio Ligand Field Theory (pilot matlab implementation)
   Alexander A. Auer      : GIAO ZORA, VPT2 properties, NMR spectrum
   Ute Becker             : Parallelization
   Giovanni Bistoni       : ED, misc. LED, open-shell LED, HFLD
   Martin Brehm           : Molecular dynamics
   Dmytro Bykov           : SCF Hessian
   Vijay G. Chilkuri      : MRCI spin determinant printing, contributions to CSF-ICE
   Dipayan Datta          : RHF DLPNO-CCSD density
   Achintya Kumar Dutta   : EOM-CC, STEOM-CC
   Dmitry Ganyushin       : Spin-Orbit,Spin-Spin,Magnetic field MRCI
   Miquel Garcia          : C-PCM and meta-GGA Hessian, CC/C-PCM, Gaussian charge scheme
   Yang Guo               : DLPNO-NEVPT2, F12-NEVPT2, CIM, IAO-localization
   Andreas Hansen         : Spin unrestricted coupled pair/coupled cluster methods
   Benjamin Helmich-Paris : MC-RPA, TRAH-SCF, COSX integrals
   Lee Huntington         : MR-EOM, pCC
   Robert Izsak           : Overlap fitted RIJCOSX, COSX-SCS-MP3, EOM
   Marcus Kettner         : VPT2
   Christian Kollmar      : KDIIS, OOCD, Brueckner-CCSD(T), CCSD density, CASPT2, CASPT2-K
   Simone Kossmann        : Meta GGA functionals, TD-DFT gradient, OOMP2, MP2 Hessian
   Martin Krupicka        : Initial AUTO-CI
   Lucas Lang             : DCDCAS
   Marvin Lechner         : AUTO-CI (C++ implementation), FIC-MRCC
   Dagmar Lenk            : GEPOL surface, SMD
   Dimitrios Liakos       : Extrapolation schemes; Compound Job, initial MDCI parallelization
   Dimitrios Manganas     : Further ROCIS development; embedding schemes
   Dimitrios Pantazis     : SARC Basis sets
   Anastasios Papadopoulos: AUTO-CI, single reference methods and gradients
   Taras Petrenko         : DFT Hessian,TD-DFT gradient, ASA, ECA, R-Raman, ABS, FL, XAS/XES, NRVS
   Peter Pinski           : DLPNO-MP2, DLPNO-MP2 Gradient
   Christoph Reimann      : Effective Core Potentials
   Marius Retegan         : Local ZFS, SOC
   Christoph Riplinger    : Optimizer, TS searches, QM/MM, DLPNO-CCSD(T), (RO)-DLPNO pert. Triples
   Tobias Risthaus        : Range-separated hybrids, TD-DFT gradient, RPA, STAB
   Michael Roemelt        : Original ROCIS implementation
   Masaaki Saitow         : Open-shell DLPNO-CCSD energy and density
   Barbara Sandhoefer     : DKH picture change effects
   Avijit Sen             : IP-ROCIS
   Kantharuban Sivalingam : CASSCF convergence, NEVPT2, FIC-MRCI
   Bernardo de Souza      : ESD, SOC TD-DFT
   Georgi Stoychev        : AutoAux, RI-MP2 NMR, DLPNO-MP2 response
   Willem Van den Heuvel  : Paramagnetic NMR
   Boris Wezisla          : Elementary symmetry handling
   Frank Wennmohs         : Technical directorship


 We gratefully acknowledge several colleagues who have allowed us to
 interface, adapt or use parts of their codes:
   Stefan Grimme, W. Hujo, H. Kruse, P. Pracht,  : VdW corrections, initial TS optimization,
                  C. Bannwarth, S. Ehlert          DFT functionals, gCP, sTDA/sTD-DF
   Ed Valeev, F. Pavosevic, A. Kumar             : LibInt (2-el integral package), F12 methods
   Garnet Chan, S. Sharma, J. Yang, R. Olivares  : DMRG
   Ulf Ekstrom                                   : XCFun DFT Library
   Mihaly Kallay                                 : mrcc  (arbitrary order and MRCC methods)
   Jiri Pittner, Ondrej Demel                    : Mk-CCSD
   Frank Weinhold                                : gennbo (NPA and NBO analysis)
   Christopher J. Cramer and Donald G. Truhlar   : smd solvation model
   Lars Goerigk                                  : TD-DFT with DH, B97 family of functionals
   V. Asgeirsson, H. Jonsson                     : NEB implementation
   FAccTs GmbH                                   : IRC, NEB, NEB-TS, DLPNO-Multilevel, CI-OPT
                                                   MM, QMMM, 2- and 3-layer-ONIOM, Crystal-QMMM,
                                                   LR-CPCM, SF, NACMEs, symmetry and pop. for TD-DFT,
                                                   nearIR, NL-DFT gradient (VV10), updates on ESD,
                                                   ML-optimized integration grids
   S Lehtola, MJT Oliveira, MAL Marques          : LibXC Library
   Liviu Ungur et al                             : ANISO software


 Your calculation uses the libint2 library for the computation of 2-el integrals
 For citations please refer to: http://libint.valeyev.net

 Your ORCA version has been built with support for libXC version: 5.1.0
 For citations please refer to: https://tddft.org/programs/libxc/

 This ORCA versions uses:
   CBLAS   interface :  Fast vector & matrix operations
   LAPACKE interface :  Fast linear algebra routines
   Shared memory     :  Shared parallel matrices


Your calculation utilizes the atom-pairwise dispersion correction
based on tight binding partial charges (D4)
Cite in your paper:
E.Caldeweyher, C.Bannwarth, S.Grimme, J.Chem.Phys., (2017), 147, 034112.
E.Caldeweyher, S.Ehlert, A.Hansen, H.Neugebauer, S.Grimme, J.Chem.Phys., (2018), in progress.
   

================================================================================

----- Orbital basis set information -----
Your calculation utilizes the basis: def2-SVP
   F. Weigend and R. Ahlrichs, Phys. Chem. Chem. Phys. 7, 3297 (2005).

----- AuxJ basis set information -----
Your calculation utilizes the auxiliary basis: def2/J
   F. Weigend, Phys. Chem. Chem. Phys. 8, 1057 (2006).

================================================================================
                                        WARNINGS
                       Please study these warnings very carefully!
================================================================================


WARNING: Geometry Optimization
  ===> : Switching off AutoStart
         For restart on a previous wavefunction, please use MOREAD

INFO   : the flag for use of the SHARK integral package has been found!

================================================================================
                                       INPUT FILE
================================================================================
NAME = opt.inp
|  1> !B3LYP DEF2-SVP OPT FREQ D4 SOSCF
|  2> 
|  3> * xyz 1 1
|  4>    C       -2.20671        1.29033       -0.29629
|  5>    C       -3.34596        0.46783       -0.20483
|  6>    C       -3.23828       -0.91905       -0.16854
|  7>    C       -1.98803       -1.51907       -0.22281
|  8>    C       -0.83994       -0.73520       -0.31360
|  9>    C       -0.90608        0.67879       -0.35314
| 10>    H       -4.33445        0.90864       -0.16090
| 11>    H       -4.12904       -1.53011       -0.09802
| 12>    H       -1.90573       -2.59812       -0.19449
| 13>    H        0.11299       -1.24732       -0.35328
| 14>    H        1.00963       -0.37476        8.67242
| 15>    N       -2.43589        2.69724       -0.32611
| 16>    H       -3.39984        3.05994       -0.28121
| 17>    H       -1.70386        3.40887       -0.39045
| 18>    N        0.33224        1.40825       -0.44751
| 19>    O        0.35804        2.59811       -0.48560
| 20>    O        1.37088        0.81928       -0.48979
| 21> *
| 22> 
| 23>                          ****END OF INPUT****
================================================================================

                       *****************************
                       * Geometry Optimization Run *
                       *****************************

Geometry optimization settings:
Update method            Update   .... BFGS
Choice of coordinates    CoordSys .... Z-matrix Internals
Initial Hessian          InHess   .... Almoef's Model

Convergence Tolerances:
Energy Change            TolE     ....  5.0000e-06 Eh
Max. Gradient            TolMAXG  ....  3.0000e-04 Eh/bohr
RMS Gradient             TolRMSG  ....  1.0000e-04 Eh/bohr
Max. Displacement        TolMAXD  ....  4.0000e-03 bohr
RMS Displacement         TolRMSD  ....  2.0000e-03 bohr
Strict Convergence                ....  False
------------------------------------------------------------------------------
                        ORCA OPTIMIZATION COORDINATE SETUP
------------------------------------------------------------------------------

The optimization will be done in new redundant internal coordinates
Making redundant internal coordinates   ...  (new redundants) done
Evaluating the initial hessian          ...  (Almloef) done
Evaluating the coordinates              ...  done
Calculating the B-matrix                .... done
Calculating the G-matrix                .... done
Diagonalizing the G-matrix              .... done
The first mode is                       ....  457
The number of degrees of freedom        ....   45

    -----------------------------------------------------------------
                    Redundant Internal Coordinates


    -----------------------------------------------------------------
         Definition                    Initial Value    Approx d2E/dq
    -----------------------------------------------------------------
      1. B(C   1,C   0)                  1.4081         0.584591   
      2. B(C   2,C   1)                  1.3915         0.621301   
      3. B(C   3,C   2)                  1.3878         0.629779   
      4. B(C   4,C   3)                  1.3931         0.617658   
      5. B(C   5,C   4)                  1.4161         0.567697   
      6. B(C   5,C   0)                  1.4384         0.523117   
      7. B(H   6,C   1)                  1.0832         0.369188   
      8. B(H   7,C   2)                  1.0825         0.370150   
      9. B(H   8,C   3)                  1.0826         0.370085   
     10. B(H   9,C   4)                  1.0826         0.370090   
     11. B(H  10,H   9)                  9.1120         0.000000   
     12. B(H  10,H   8)                  9.5950         0.000000   
     13. B(H  10,C   5)                  9.2866         0.000000   
     14. B(H  10,C   4)                  9.1815         0.000000   
     15. B(H  10,C   3)                  9.4562         0.000000   
     16. B(H  10,C   2)                  9.8236         0.000000   
     17. B(H  10,C   1)                  9.9240         0.000000   
     18. B(H  10,C   0)                  9.6724         0.000000   
     19. B(N  11,H  10)                 10.1135         0.000000   
     20. B(N  11,C   0)                  1.4258         0.490697   
     21. B(H  12,N  11)                  1.0309         0.400720   
     22. B(H  13,N  11)                  1.0229         0.412606   
     23. B(N  14,C   5)                  1.4403         0.465190   
     24. B(N  14,H  10)                  9.3172         0.000000   
     25. B(O  15,N  14)                  1.1907         1.042088   
     26. B(O  15,H  10)                  9.6505         0.000000   
     27. B(O  16,H  10)                  9.2467         0.000000   
     28. B(O  16,N  14)                  1.1948         1.026854   
     29. A(C   5,C   0,N  11)          124.3377         0.401335   
     30. A(C   5,C   0,H  10)           70.2917         0.089202   
     31. A(H  10,C   0,N  11)          104.0469         0.089198   
     32. A(C   1,C   0,H  10)           96.2147         0.089207   
     33. A(C   1,C   0,C   5)          119.0661         0.416657   
     34. A(C   1,C   0,N  11)          116.5963         0.409289   
     35. A(C   0,C   1,H   6)          120.2148         0.350893   
     36. A(C   2,C   1,H   6)          118.3688         0.354528   
     37. A(C   2,C   1,H  10)           81.8415         0.089170   
     38. A(C   0,C   1,C   2)          121.4164         0.429665   
     39. A(C   0,C   1,H  10)           75.6764         0.089168   
     40. A(H   6,C   1,H  10)          113.5023         0.089131   
     41. A(C   1,C   2,C   3)          119.9728         0.435455   
     42. A(C   1,C   2,H  10)           90.0980         0.089185   
     43. A(C   3,C   2,H   7)          119.9859         0.355501   
     44. A(H   7,C   2,H  10)          109.1760         0.089143   
     45. A(C   1,C   2,H   7)          120.0413         0.354684   
     46. A(C   3,C   2,H  10)           70.7068         0.089186   
     47. A(C   4,C   3,H   8)          119.9934         0.354320   
     48. A(H   8,C   3,H  10)           94.1238         0.089193   
     49. A(C   2,C   3,H   8)          119.8946         0.355490   
     50. A(C   2,C   3,H  10)          101.3308         0.089252   
     51. A(C   4,C   3,H  10)           74.4529         0.089251   
     52. A(C   2,C   3,C   4)          120.1120         0.434994   
     53. A(C   5,C   4,H   9)          120.8276         0.349304   
     54. A(C   3,C   4,C   5)          121.6793         0.426961   
     55. A(C   5,C   4,H  10)           89.8589         0.089310   
     56. A(H   9,C   4,H  10)           82.9416         0.089243   
     57. A(C   3,C   4,H  10)           97.1415         0.089316   
     58. A(C   3,C   4,H   9)          117.4931         0.354321   
     59. A(C   0,C   5,C   4)          117.7535         0.414490   
     60. A(C   4,C   5,N  14)          117.8649         0.403349   
     61. A(C   0,C   5,N  14)          124.3817         0.397584   
     62. A(C   4,C   5,H  10)           81.3700         0.089284   
     63. A(C   0,C   5,H  10)          101.3240         0.089279   
     64. A(H  10,C   5,N  14)           86.7770         0.089269   
     65. A(C   3,H   8,H  10)           79.4149         0.089095   
     66. A(C   4,H   9,H  10)           90.2872         0.089142   
     67. A(C   0,H  10,C   1)            8.1089         0.089000   
     68. A(C   2,H  10,H   8)           12.6046         0.089000   
     69. A(C   1,H  10,H   8)           19.8951         0.089000   
     70. A(N  11,H  10,O  16)           24.8329         0.089000   
     71. A(C   5,H  10,O  16)           14.1644         0.089000   
     72. A(C   4,H  10,O  16)           16.8976         0.089000   
     73. A(C   3,H  10,C   5)           15.0061         0.089000   
     74. A(C   1,H  10,C   5)           14.1763         0.089000   
     75. A(N  11,H  10,O  15)           16.0693         0.089000   
     76. A(H   9,H  10,O  15)           23.4904         0.089000   
     77. A(C   5,H  10,O  15)           13.7906         0.089000   
     78. A(C   4,H  10,O  15)           21.5220         0.089000   
     79. A(C   3,H  10,O  15)           28.7418         0.089000   
     80. A(N  14,H  10,O  15)            6.9116         0.089000   
     81. A(C   0,H  10,O  16)           21.8733         0.089000   
     82. A(C   2,H  10,C   5)           16.7463         0.089000   
     83. A(C   1,H  10,O  15)           25.2224         0.089000   
     84. A(C   4,H  10,C   5)            8.7711         0.089000   
     85. A(N  14,H  10,O  16)            7.3673         0.089000   
     86. A(C   0,H  10,H   8)           23.3604         0.089000   
     87. A(C   3,H  10,C   4)            8.4057         0.089000   
     88. A(C   0,H  10,O  15)           17.1737         0.089000   
     89. A(C   3,H  10,H   8)            6.4613         0.089000   
     90. A(C   4,H  10,H   8)           12.9038         0.089000   
     91. A(C   2,H  10,C   4)           14.0474         0.089000   
     92. A(O  15,H  10,O  16)           12.1947         0.089000   
     93. A(C   1,H  10,C   4)           16.1458         0.089000   
     94. A(C   5,H  10,N  14)            8.8785         0.089000   
     95. A(C   0,H  10,C   4)           14.5934         0.089000   
     96. A(C   3,H  10,N  14)           22.9800         0.089000   
     97. A(C   2,H  10,N  14)           25.6116         0.089000   
     98. A(C   1,H  10,N  14)           22.5221         0.089000   
     99. A(H   9,H  10,O  16)           15.1460         0.089000   
    100. A(C   0,H  10,N  14)           15.2623         0.089000   
    101. A(C   2,H  10,C   3)            7.9623         0.089000   
    102. A(C   1,H  10,C   3)           13.9976         0.089000   
    103. A(C   5,H  10,N  11)           14.1902         0.089000   
    104. A(C   4,H  10,N  11)           21.9483         0.089000   
    105. A(C   0,H  10,C   3)           16.8991         0.089000   
    106. A(H   8,H  10,O  16)           29.0881         0.089000   
    107. A(C   3,H  10,N  11)           24.7407         0.089000   
    108. A(C   2,H  10,N  11)           21.3706         0.089000   
    109. A(H   8,H  10,N  11)           31.1999         0.089000   
    110. A(H   9,H  10,N  11)           27.6540         0.089000   
    111. A(C   1,H  10,N  11)           13.7797         0.089000   
    112. A(C   0,H  10,N  11)            7.8605         0.089000   
    113. A(C   1,H  10,O  16)           28.3385         0.089000   
    114. A(C   3,H  10,O  16)           25.3028         0.089000   
    115. A(C   1,H  10,C   2)            8.0604         0.089000   
    116. A(H   8,H  10,H   9)           14.6589         0.089000   
    117. A(C   2,H  10,O  16)           29.8083         0.089000   
    118. A(C   4,H  10,N  14)           15.1776         0.089000   
    119. A(C   5,H  10,H   9)           13.5606         0.089000   
    120. A(H   8,H  10,N  14)           28.0801         0.089000   
    121. A(H   9,H  10,N  14)           16.5884         0.089000   
    122. A(N  11,H  10,N  14)           17.4821         0.089000   
    123. A(C   4,H  10,H   9)            6.7712         0.089000   
    124. A(C   0,H  10,C   2)           14.3619         0.089000   
    125. A(C   3,H  10,H   9)           12.9553         0.089000   
    126. A(C   2,H  10,O  15)           29.9832         0.089000   
    127. A(C   2,H  10,H   9)           20.0653         0.089000   
    128. A(C   1,H  10,H   9)           22.9119         0.089000   
    129. A(C   0,H  10,H   9)           20.8198         0.089000   
    130. A(H   8,H  10,O  15)           34.3009         0.089000   
    131. A(C   5,H  10,H   8)           20.8477         0.089000   
    132. A(C   0,H  10,C   5)            8.3843         0.089000   
    133. A(H  12,N  11,H  13)          115.2847         0.297310   
    134. A(H  10,N  11,H  13)           91.3452         0.089109   
    135. A(H  10,N  11,H  12)          112.7478         0.089109   
    136. A(C   0,N  11,H  10)           68.0926         0.089132   
    137. A(C   0,N  11,H  13)          124.9424         0.342025   
    138. A(C   0,N  11,H  12)          119.7730         0.340357   
    139. A(O  15,N  14,O  16)          118.2049         0.509766   
    140. A(C   5,N  14,O  16)          120.0048         0.442526   
    141. A(C   5,N  14,O  15)          121.7903         0.443706   
    142. A(H  10,N  14,O  16)           82.9405         0.089300   
    143. A(H  10,N  14,O  15)          102.7654         0.089301   
    144. A(C   5,N  14,H  10)           84.3445         0.089253   
    145. A(H  10,O  15,N  14)           70.3230         0.089228   
    146. A(H  10,O  16,N  14)           89.6923         0.089318   
    147. D(C   2,C   1,C   0,N  11)   -179.9990         0.027416   
    148. D(H   6,C   1,C   0,C   5)   -179.9993         0.027416   
    149. D(H   6,C   1,C   0,H  10)    109.1225         0.027416   
    150. D(H  10,C   1,C   0,N  11)   -109.1211         0.027416   
    151. D(C   2,C   1,C   0,H  10)    -70.8779         0.027416   
    152. D(H  10,C   1,C   0,C   5)     70.8782         0.027416   
    153. D(H   6,C   1,C   0,N  11)      0.0014         0.027416   
    154. D(C   2,C   1,C   0,C   5)      0.0002         0.027416   
    155. D(C   3,C   2,C   1,H  10)    -67.6400         0.031212   
    156. D(H   7,C   2,C   1,H  10)    112.3605         0.031212   
    157. D(C   3,C   2,C   1,H   6)    179.9995         0.031212   
    158. D(H  10,C   2,C   1,C   0)     67.6400         0.031212   
    159. D(H  10,C   2,C   1,H   6)   -112.3605         0.031212   
    160. D(H   7,C   2,C   1,C   0)   -179.9995         0.031212   
    161. D(C   3,C   2,C   1,C   0)     -0.0000         0.031212   
    162. D(H   7,C   2,C   1,H   6)      0.0000         0.031212   
    163. D(C   4,C   3,C   2,H  10)    -78.4751         0.032131   
    164. D(C   4,C   3,C   2,C   1)     -0.0000         0.032131   
    165. D(C   4,C   3,C   2,H   7)    179.9994         0.032131   
    166. D(H   8,C   3,C   2,C   1)   -179.9999         0.032131   
    167. D(H   8,C   3,C   2,H   7)     -0.0004         0.032131   
    168. D(H   8,C   3,C   2,H  10)    101.5250         0.032131   
    169. D(H  10,C   3,C   2,C   1)     78.4751         0.032131   
    170. D(H  10,C   3,C   2,H   7)   -101.5254         0.032131   
    171. D(H   9,C   4,C   3,H   8)     -0.0003         0.030821   
    172. D(H  10,C   4,C   3,H   8)    -85.7333         0.030821   
    173. D(C   5,C   4,C   3,H  10)    -94.2669         0.030821   
    174. D(H  10,C   4,C   3,C   2)     94.2668         0.030821   
    175. D(H   9,C   4,C   3,C   2)    179.9998         0.030821   
    176. D(C   5,C   4,C   3,H   8)    179.9998         0.030821   
    177. D(C   5,C   4,C   3,C   2)     -0.0001         0.030821   
    178. D(H   9,C   4,C   3,H  10)     85.7330         0.030821   
    179. D(C   0,C   5,C   4,H  10)    -98.3119         0.025771   
    180. D(N  14,C   5,C   4,H  10)     81.6880         0.025771   
    181. D(H  10,C   5,C   4,H   9)    -81.6877         0.025771   
    182. D(N  14,C   5,C   4,C   3)   -179.9998         0.025771   
    183. D(C   4,C   5,C   0,H  10)     86.1267         0.021726   
    184. D(C   0,C   5,C   4,C   3)      0.0003         0.025771   
    185. D(N  14,C   5,C   0,H  10)    -93.8731         0.021726   
    186. D(H  10,C   5,C   4,C   3)     98.3122         0.025771   
    187. D(C   0,C   5,C   4,H   9)   -179.9996         0.025771   
    188. D(H  10,C   5,C   0,C   1)    -86.1271         0.021726   
    189. D(C   4,C   5,C   0,C   1)     -0.0004         0.021726   
    190. D(N  14,C   5,C   0,N  11)     -0.0010         0.021726   
    191. D(N  14,C   5,C   0,C   1)    179.9998         0.021726   
    192. D(C   4,C   5,C   0,N  11)    179.9988         0.021726   
    193. D(N  14,C   5,C   4,H   9)      0.0003         0.025771   
    194. D(H  10,C   5,C   0,N  11)     93.8721         0.021726   
    195. D(H  10,H   8,C   3,C   2)   -105.5849         0.129849   
    196. D(H  10,H   8,C   3,C   4)     74.4152         0.129849   
    197. D(H  10,H   9,C   4,C   5)     85.5964         0.129853   
    198. D(H  10,H   9,C   4,C   3)    -94.4035         0.129853   
    199. D(C   4,H  10,C   0,C   5)    -32.7164         0.001500   
    200. D(C   3,H  10,C   2,H   7)    116.0332         0.001500   
    201. D(C   3,H  10,C   0,N  11)    175.2251         0.001500   
    202. D(C   3,H  10,C   0,C   5)    -62.9037         0.001500   
    203. D(C   0,H  10,C   2,H   7)   -149.6423         0.001500   
    204. D(C   3,H  10,C   0,C   1)     55.7876         0.001500   
    205. D(H   9,H  10,H   8,C   3)    -62.2930         0.001500   
    206. D(C   4,H  10,C   0,C   1)     85.9749         0.001500   
    207. D(C   5,H  10,C   2,C   1)    -57.9875         0.001500   
    208. D(C   5,H  10,C   2,H   7)    179.9645         0.001500   
    209. D(C   2,H  10,C   0,N  11)    146.8543         0.001500   
    210. D(N  11,H  10,C   5,C   4)   -145.0210         0.001500   
    211. D(N  11,H  10,C   5,C   0)    -28.2799         0.001500   
    212. D(O  16,H  10,C   1,C   2)     93.2468         0.001500   
    213. D(C   2,H  10,C   0,C   5)    -91.2745         0.001500   
    214. D(C   2,H  10,C   0,C   1)     27.4168         0.001500   
    215. D(O  15,H  10,C   1,C   0)     -5.8154         0.001500   
    216. D(C   1,H  10,C   0,N  11)    119.4375         0.001500   
    217. D(C   1,H  10,C   0,C   5)   -118.6913         0.001500   
    218. D(C   1,H  10,C   5,N  14)    154.7876         0.001500   
    219. D(C   1,H  10,C   5,C   4)    -86.3939         0.001500   
    220. D(N  11,H  10,C   1,H   6)    -87.0840         0.001500   
    221. D(N  11,H  10,C   1,C   0)     30.0028         0.001500   
    222. D(O  15,H  10,C   4,C   5)    -22.2507         0.001500   
    223. D(H   9,H  10,C   1,C   2)     59.9965         0.001500   
    224. D(H   8,H  10,C   1,H   6)    137.3396         0.001500   
    225. D(N  11,H  10,C   4,C   5)     22.0854         0.001500   
    226. D(H   8,H  10,C   1,C   2)     19.8827         0.001500   
    227. D(N  11,H  10,C   4,C   3)    -99.8500         0.001500   
    228. D(H   9,H  10,C   4,C   5)   -121.1096         0.001500   
    229. D(H   8,H  10,C   1,C   0)   -105.5737         0.001500   
    230. D(C   5,H  10,C   1,C   2)     93.9712         0.001500   
    231. D(C   3,H  10,C   4,C   5)    121.9354         0.001500   
    232. D(C   4,H  10,C   1,H   6)    178.2484         0.001500   
    233. D(C   4,H  10,C   1,C   2)     60.7915         0.001500   
    234. D(C   1,H  10,C   4,H   9)   -177.3741         0.001500   
    235. D(C   4,H  10,C   1,C   0)    -64.6649         0.001500   
    236. D(C   3,H  10,C   1,H   6)    146.5412         0.001500   
    237. D(C   3,H  10,C   4,H   9)   -116.9550         0.001500   
    238. D(C   5,H  10,C   1,C   0)    -31.4852         0.001500   
    239. D(H   8,H  10,C   4,C   3)     25.8715         0.001500   
    240. D(C   5,H  10,C   1,H   6)   -148.5719         0.001500   
    241. D(C   0,H  10,C   4,H   9)    152.2289         0.001500   
    242. D(N  11,H  10,C   4,H   9)    143.1950         0.001500   
    243. D(N  14,H  10,C   4,C   3)   -153.0329         0.001500   
    244. D(H   9,H  10,C   1,C   0)    -65.4599         0.001500   
    245. D(O  15,H  10,C   4,H   9)     98.8589         0.001500   
    246. D(H   9,H  10,C   1,H   6)    177.4534         0.001500   
    247. D(O  16,H  10,C   4,H   9)     63.8355         0.001500   
    248. D(N  11,H  10,C   1,C   2)    155.4591         0.001500   
    249. D(C   0,H  10,C   4,C   5)     31.1193         0.001500   
    250. D(N  14,H  10,C   1,C   0)    -21.6020         0.001500   
    251. D(N  14,H  10,C   1,C   2)    103.8543         0.001500   
    252. D(N  14,H  10,C   1,H   6)   -138.6888         0.001500   
    253. D(C   4,H  10,C   5,C   0)    116.7411         0.001500   
    254. D(O  15,H  10,C   1,C   2)    119.6409         0.001500   
    255. D(O  15,H  10,C   1,H   6)   -122.9022         0.001500   
    256. D(O  16,H  10,C   1,C   0)    -32.2095         0.001500   
    257. D(C   3,H  10,C   1,C   0)    -96.3721         0.001500   
    258. D(O  16,H  10,C   1,H   6)   -149.2963         0.001500   
    259. D(C   0,H  10,C   2,C   1)    -27.5943         0.001500   
    260. D(C   0,H  10,C   2,C   3)     94.3245         0.001500   
    261. D(O  16,H  10,C   5,C   0)   -151.0581         0.001500   
    262. D(C   1,H  10,C   2,C   3)    121.9188         0.001500   
    263. D(C   1,H  10,C   2,H   7)   -122.0480         0.001500   
    264. D(C   3,H  10,C   2,C   1)   -121.9188         0.001500   
    265. D(N  11,H  10,H   8,C   3)      1.3290         0.001500   
    266. D(C   4,H  10,C   2,C   1)    -89.9229         0.001500   
    267. D(C   4,H  10,C   2,C   3)     31.9959         0.001500   
    268. D(C   4,H  10,C   2,H   7)    148.0291         0.001500   
    269. D(C   3,H  10,H   9,C   4)     35.5350         0.001500   
    270. D(C   5,H  10,C   2,C   3)     63.9313         0.001500   
    271. D(N  14,H  10,H   9,C   4)    -66.4985         0.001500   
    272. D(C   4,H  10,C   0,N  11)   -154.5876         0.001500   
    273. D(C   1,H  10,C   4,C   3)    -60.4191         0.001500   
    274. D(O  16,H  10,C   3,C   2)   -117.8445         0.001500   
    275. D(C   2,H  10,C   1,H   6)    117.4569         0.001500   
    276. D(O  15,H  10,C   3,C   4)     26.5145         0.001500   
    277. D(O  15,H  10,C   3,C   2)    -91.8677         0.001500   
    278. D(C   0,H  10,C   1,H   6)   -117.0867         0.001500   
    279. D(N  14,H  10,C   3,H   8)    137.7160         0.001500   
    280. D(N  14,H  10,C   0,C   5)     28.9168         0.001500   
    281. D(C   2,H  10,C   3,C   4)    118.3821         0.001500   
    282. D(C   1,H  10,C   3,H   8)   -151.0814         0.001500   
    283. D(C   4,H  10,C   3,C   2)   -118.3821         0.001500   
    284. D(H   9,H  10,C   3,C   4)    -27.9549         0.001500   
    285. D(O  16,H  10,C   0,C   1)    137.2245         0.001500   
    286. D(H   9,H  10,C   3,C   2)   -146.3371         0.001500   
    287. D(C   5,H  10,C   3,H   8)    149.9978         0.001500   
    288. D(C   5,H  10,C   3,C   4)     29.9862         0.001500   
    289. D(O  15,H  10,C   0,N  11)    -68.9711         0.001500   
    290. D(C   4,H  10,C   3,H   8)    120.0116         0.001500   
    291. D(C   2,H  10,C   3,H   8)   -121.6063         0.001500   
    292. D(H   9,H  10,C   3,H   8)     92.0566         0.001500   
    293. D(H   8,H  10,C   3,C   4)   -120.0116         0.001500   
    294. D(N  11,H  10,C   3,H   8)   -178.3549         0.001500   
    295. D(N  14,H  10,C   3,C   2)   -100.6777         0.001500   
    296. D(O  16,H  10,C   0,N  11)   -103.3380         0.001500   
    297. D(N  14,H  10,C   0,N  11)    -92.9544         0.001500   
    298. D(O  16,H  10,C   0,C   5)     18.5332         0.001500   
    299. D(O  15,H  10,C   0,C   1)    171.5914         0.001500   
    300. D(C   5,H  10,C   3,C   2)    -88.3959         0.001500   
    301. D(C   1,H  10,C   3,C   4)     88.9070         0.001500   
    302. D(H   8,H  10,C   3,C   2)    121.6063         0.001500   
    303. D(N  14,H  10,C   0,C   1)    147.6080         0.001500   
    304. D(O  15,H  10,C   0,C   5)     52.9001         0.001500   
    305. D(C   1,H  10,C   3,C   2)    -29.4751         0.001500   
    306. D(C   0,H  10,C   3,H   8)   -179.9136         0.001500   
    307. D(H   9,H  10,C   2,C   3)     21.2359         0.001500   
    308. D(C   0,H  10,C   3,C   2)    -58.3073         0.001500   
    309. D(N  11,H  10,C   3,C   4)     61.6335         0.001500   
    310. D(C   0,H  10,C   1,C   2)    125.4564         0.001500   
    311. D(C   3,H  10,C   1,C   2)     29.0843         0.001500   
    312. D(N  14,H  10,C   3,C   4)     17.7044         0.001500   
    313. D(O  16,H  10,C   2,H   7)    165.5188         0.001500   
    314. D(H   8,H  10,C   0,C   1)     55.7631         0.001500   
    315. D(O  15,H  10,C   3,H   8)    146.5260         0.001500   
    316. D(C   2,H  10,C   1,C   0)   -125.4564         0.001500   
    317. D(N  11,H  10,C   2,H   7)   -137.8008         0.001500   
    318. D(O  16,H  10,C   3,C   4)      0.5376         0.001500   
    319. D(O  16,H  10,C   3,H   8)    120.5492         0.001500   
    320. D(C   0,H  10,C   4,C   3)    -90.8162         0.001500   
    321. D(O  16,H  10,C   2,C   3)     49.4855         0.001500   
    322. D(H   8,H  10,C   0,C   5)    -62.9282         0.001500   
    323. D(O  15,H  10,C   2,C   3)     74.0921         0.001500   
    324. D(C   1,H  10,C   4,C   5)     61.5163         0.001500   
    325. D(N  14,H  10,C   2,H   7)    178.5976         0.001500   
    326. D(C   2,H  10,C   4,C   3)    -30.1389         0.001500   
    327. D(C   2,H  10,C   4,C   5)     91.7965         0.001500   
    328. D(C   2,H  10,C   4,H   9)   -147.0939         0.001500   
    329. D(H   9,H  10,C   0,C   1)     94.8664         0.001500   
    330. D(N  14,H  10,C   2,C   3)     62.5643         0.001500   
    331. D(C   5,H  10,C   4,C   3)   -121.9354         0.001500   
    332. D(C   5,H  10,C   4,H   9)    121.1096         0.001500   
    333. D(H   8,H  10,C   0,N  11)    175.2006         0.001500   
    334. D(H   8,H  10,C   4,C   5)    147.8069         0.001500   
    335. D(H   8,H  10,C   4,H   9)    -91.0835         0.001500   
    336. D(H   9,H  10,C   4,C   3)    116.9550         0.001500   
    337. D(N  14,H  10,C   2,C   1)    -59.3545         0.001500   
    338. D(O  15,H  10,C   2,C   1)    -47.8267         0.001500   
    339. D(N  11,H  10,C   3,C   2)    -56.7486         0.001500   
    340. D(H   9,H  10,C   0,N  11)   -145.6961         0.001500   
    341. D(N  11,H  10,C   2,C   3)    106.1660         0.001500   
    342. D(N  14,H  10,C   4,C   5)    -31.0975         0.001500   
    343. D(N  14,H  10,C   4,H   9)     90.0121         0.001500   
    344. D(O  15,H  10,C   4,C   3)   -144.1861         0.001500   
    345. D(O  16,H  10,C   2,C   1)    -72.4333         0.001500   
    346. D(N  11,H  10,C   2,C   1)    -15.7528         0.001500   
    347. D(O  16,H  10,C   4,C   3)   -179.2095         0.001500   
    348. D(O  16,H  10,C   4,C   5)    -57.2741         0.001500   
    349. D(H   9,H  10,C   2,H   7)    137.2691         0.001500   
    350. D(C   0,H  10,C   5,C   4)   -116.7411         0.001500   
    351. D(C   0,H  10,C   5,N  14)    124.4405         0.001500   
    352. D(C   1,H  10,C   5,C   0)     30.3471         0.001500   
    353. D(N  11,H  10,C   0,C   1)   -119.4375         0.001500   
    354. D(O  15,H  10,C   2,H   7)   -169.8747         0.001500   
    355. D(C   2,H  10,C   5,C   0)     59.3905         0.001500   
    356. D(C   2,H  10,C   5,C   4)    -57.3505         0.001500   
    357. D(C   2,H  10,C   5,N  14)   -176.1690         0.001500   
    358. D(C   3,H  10,C   5,C   0)     88.1130         0.001500   
    359. D(C   3,H  10,C   5,C   4)    -28.6281         0.001500   
    360. D(C   3,H  10,C   5,N  14)   -147.4465         0.001500   
    361. D(N  11,H  10,C   0,C   5)    121.8712         0.001500   
    362. D(C   4,H  10,C   5,N  14)   -118.8184         0.001500   
    363. D(H   8,H  10,C   5,C   0)     97.2104         0.001500   
    364. D(H   8,H  10,C   5,C   4)    -19.5307         0.001500   
    365. D(H   8,H  10,C   5,N  14)   -138.3491         0.001500   
    366. D(H   9,H  10,C   5,C   0)    142.2423         0.001500   
    367. D(H   9,H  10,C   5,C   4)     25.5012         0.001500   
    368. D(H   9,H  10,C   5,N  14)    -93.3172         0.001500   
    369. D(C   5,H  10,C   0,N  11)   -121.8712         0.001500   
    370. D(H   9,H  10,C   2,C   1)   -100.6829         0.001500   
    371. D(N  11,H  10,C   5,N  14)     96.1606         0.001500   
    372. D(N  14,H  10,C   5,C   0)   -124.4405         0.001500   
    373. D(N  14,H  10,C   5,C   4)    118.8184         0.001500   
    374. D(O  15,H  10,C   5,C   0)    -98.9036         0.001500   
    375. D(O  15,H  10,C   5,C   4)    144.3553         0.001500   
    376. D(O  15,H  10,C   5,N  14)     25.5369         0.001500   
    377. D(H   8,H  10,C   2,H   7)     89.9812         0.001500   
    378. D(O  16,H  10,C   5,C   4)     92.2008         0.001500   
    379. D(O  16,H  10,C   5,N  14)    -26.6176         0.001500   
    380. D(C   0,H  10,H   8,C   3)      0.0633         0.001500   
    381. D(C   1,H  10,H   8,C   3)     20.1033         0.001500   
    382. D(C   2,H  10,H   8,C   3)     32.7258         0.001500   
    383. D(C   4,H  10,H   8,C   3)    -34.5294         0.001500   
    384. D(C   5,H  10,H   8,C   3)    -21.3336         0.001500   
    385. D(C   5,H  10,C   0,C   1)    118.6913         0.001500   
    386. D(H   8,H  10,C   2,C   3)    -26.0521         0.001500   
    387. D(N  14,H  10,H   8,C   3)    -33.9200         0.001500   
    388. D(O  15,H  10,H   8,C   3)    -28.0758         0.001500   
    389. D(O  16,H  10,H   8,C   3)    -49.2106         0.001500   
    390. D(C   0,H  10,H   9,C   4)    -19.2868         0.001500   
    391. D(C   1,H  10,H   9,C   4)      1.8753         0.001500   
    392. D(C   2,H  10,H   9,C   4)     22.6027         0.001500   
    393. D(C   0,H  10,C   3,C   4)     60.0748         0.001500   
    394. D(C   5,H  10,H   9,C   4)    -33.8354         0.001500   
    395. D(H   8,H  10,H   9,C   4)     61.9195         0.001500   
    396. D(N  11,H  10,H   9,C   4)    -28.8460         0.001500   
    397. D(H   9,H  10,C   0,C   5)    -23.8249         0.001500   
    398. D(O  15,H  10,H   9,C   4)    -65.4223         0.001500   
    399. D(O  16,H  10,H   9,C   4)    -93.1724         0.001500   
    400. D(H   8,H  10,C   2,C   1)   -147.9709         0.001500   
    401. D(H  12,N  11,C   0,C   1)     -0.0014         0.022136   
    402. D(H  13,N  11,H  10,O  16)    -67.7755         0.001500   
    403. D(H  13,N  11,H  10,O  15)    -42.7777         0.001500   
    404. D(H  13,N  11,H  10,N  14)    -66.3919         0.001500   
    405. D(H  13,N  11,H  10,H   9)   -101.8807         0.001500   
    406. D(H  13,N  11,H  10,H   8)   -131.1210         0.001500   
    407. D(H  13,N  11,H  10,C   5)    -97.1090         0.001500   
    408. D(H  13,N  11,H  10,C   4)   -110.6346         0.001500   
    409. D(H  13,N  11,H  10,C   2)   -149.2996         0.001500   
    410. D(H  13,N  11,H  10,C   1)   -158.4961         0.001500   
    411. D(H  13,N  11,H  10,C   0)   -127.4492         0.001500   
    412. D(H  12,N  11,H  10,O  15)   -161.0143         0.001500   
    413. D(H  12,N  11,H  10,N  14)    175.3714         0.001500   
    414. D(H  12,N  11,H  10,H   9)    139.8826         0.001500   
    415. D(H  12,N  11,H  10,C   5)    144.6544         0.001500   
    416. D(H  12,N  11,H  10,C   4)    131.1288         0.001500   
    417. D(H  12,N  11,H  10,C   3)    110.9996         0.001500   
    418. D(H  12,N  11,H  10,C   2)     92.4637         0.001500   
    419. D(H  12,N  11,H  10,C   1)     83.2673         0.001500   
    420. D(H  12,N  11,H  10,C   0)    114.3141         0.001500   
    421. D(C   0,N  11,H  10,O  16)     59.6737         0.001500   
    422. D(C   0,N  11,H  10,O  15)     84.6716         0.001500   
    423. D(C   0,N  11,H  10,N  14)     61.0573         0.001500   
    424. D(H  12,N  11,H  10,H   8)    110.6423         0.001500   
    425. D(C   0,N  11,H  10,H   9)     25.5685         0.001500   
    426. D(C   0,N  11,H  10,H   8)     -3.6718         0.001500   
    427. D(C   0,N  11,H  10,C   5)     30.3402         0.001500   
    428. D(H  12,N  11,H  10,O  16)    173.9879         0.001500   
    429. D(C   0,N  11,H  10,C   4)     16.8146         0.001500   
    430. D(C   0,N  11,H  10,C   3)     -3.3145         0.001500   
    431. D(C   0,N  11,H  10,C   2)    -21.8504         0.001500   
    432. D(H  13,N  11,H  10,C   3)   -130.7637         0.001500   
    433. D(C   0,N  11,H  10,C   1)    -31.0468         0.001500   
    434. D(H  10,N  11,C   0,C   5)    -75.5178         0.022136   
    435. D(H  10,N  11,C   0,C   1)    104.4815         0.022136   
    436. D(H  13,N  11,C   0,H  10)     75.5155         0.022136   
    437. D(H  13,N  11,C   0,C   5)     -0.0022         0.022136   
    438. D(H  13,N  11,C   0,C   1)    179.9970         0.022136   
    439. D(H  12,N  11,C   0,H  10)   -104.4829         0.022136   
    440. D(H  12,N  11,C   0,C   5)    179.9994         0.022136   
    441. D(O  16,N  14,H  10,O  15)    117.4032         0.001500   
    442. D(O  16,N  14,H  10,H   9)    -66.1638         0.001500   
    443. D(O  16,N  14,H  10,H   8)    -91.0760         0.001500   
    444. D(O  16,N  14,H  10,C   5)   -121.2398         0.001500   
    445. D(O  16,N  14,H  10,C   3)   -100.3322         0.001500   
    446. D(O  16,N  14,H  10,C   2)   -118.6873         0.001500   
    447. D(O  16,N  14,H  10,C   1)   -137.0444         0.001500   
    448. D(O  16,N  14,H  10,C   0)   -148.4221         0.001500   
    449. D(O  15,N  14,H  10,O  16)   -117.4032         0.001500   
    450. D(O  15,N  14,H  10,N  11)     67.1326         0.001500   
    451. D(O  15,N  14,H  10,H   9)    176.4331         0.001500   
    452. D(O  15,N  14,H  10,C   5)    121.3570         0.001500   
    453. D(O  15,N  14,H  10,C   4)    152.0406         0.001500   
    454. D(O  15,N  14,H  10,C   3)    142.2647         0.001500   
    455. D(O  15,N  14,H  10,C   2)    123.9096         0.001500   
    456. D(O  15,N  14,H  10,C   1)    105.5524         0.001500   
    457. D(O  15,N  14,H  10,C   0)     94.1748         0.001500   
    458. D(C   5,N  14,H  10,O  16)    121.2398         0.001500   
    459. D(C   5,N  14,H  10,O  15)   -121.3570         0.001500   
    460. D(C   5,N  14,H  10,N  11)    -54.2244         0.001500   
    461. D(C   5,N  14,H  10,H   9)     55.0761         0.001500   
    462. D(C   5,N  14,H  10,H   8)     30.1638         0.001500   
    463. D(C   5,N  14,H  10,C   4)     30.6836         0.001500   
    464. D(O  15,N  14,H  10,H   8)    151.5208         0.001500   
    465. D(C   5,N  14,H  10,C   3)     20.9077         0.001500   
    466. D(C   5,N  14,H  10,C   2)      2.5526         0.001500   
    467. D(C   5,N  14,H  10,C   1)    -15.8046         0.001500   
    468. D(C   5,N  14,H  10,C   0)    -27.1822         0.001500   
    469. D(H  10,N  14,C   5,C   4)    -78.4763         0.019824   
    470. D(H  10,N  14,C   5,C   0)    101.5235         0.019824   
    471. D(O  16,N  14,C   5,H  10)     78.4747         0.019824   
    472. D(O  16,N  14,H  10,C   4)    -90.5562         0.001500   
    473. D(O  16,N  14,C   5,C   4)     -0.0016         0.019824   
    474. D(O  16,N  14,C   5,C   0)    179.9983         0.019824   
    475. D(O  15,N  14,C   5,H  10)   -101.5283         0.019824   
    476. D(O  16,N  14,H  10,N  11)   -175.4643         0.001500   
    477. D(O  15,N  14,C   5,C   4)    179.9954         0.019824   
    478. D(O  15,N  14,C   5,C   0)     -0.0048         0.019824   
    479. D(H  10,O  15,N  14,O  16)    -88.7687         0.119182   
    480. D(N  14,O  15,H  10,O  16)     32.6109         0.001500   
    481. D(N  14,O  15,H  10,N  11)    -90.2299         0.001500   
    482. D(N  14,O  15,H  10,H   9)     -2.5540         0.001500   
    483. D(N  14,O  15,H  10,H   8)    -23.4712         0.001500   
    484. D(N  14,O  15,H  10,C   5)    -33.5660         0.001500   
    485. D(N  14,O  15,H  10,C   4)    -19.5480         0.001500   
    486. D(N  14,O  15,H  10,C   3)    -29.7946         0.001500   
    487. D(N  14,O  15,H  10,C   2)    -45.8781         0.001500   
    488. D(H  10,O  15,N  14,C   5)     91.2343         0.119182   
    489. D(N  14,O  15,H  10,C   1)    -59.9927         0.001500   
    490. D(N  14,O  15,H  10,C   0)    -62.7671         0.001500   
    491. D(H  10,O  16,N  14,O  15)    100.7328         0.115131   
    492. D(H  10,O  16,N  14,C   5)    -79.2701         0.115131   
    493. D(N  14,O  16,H  10,O  15)    -30.3822         0.001500   
    494. D(N  14,O  16,H  10,N  11)      3.2428         0.001500   
    495. D(N  14,O  16,H  10,H   9)     88.1424         0.001500   
    496. D(N  14,O  16,H  10,H   8)     75.4783         0.001500   
    497. D(N  14,O  16,H  10,C   5)     32.6335         0.001500   
    498. D(N  14,O  16,H  10,C   4)     64.2501         0.001500   
    499. D(N  14,O  16,H  10,C   3)     63.9797         0.001500   
    500. D(N  14,O  16,H  10,C   2)     49.7153         0.001500   
    501. D(N  14,O  16,H  10,C   1)     33.3585         0.001500   
    502. D(N  14,O  16,H  10,C   0)     21.7158         0.001500   
    -----------------------------------------------------------------

Number of atoms                         .... 17
Number of degrees of freedom            .... 502

         *************************************************************
         *                GEOMETRY OPTIMIZATION CYCLE   1            *
         *************************************************************
---------------------------------
CARTESIAN COORDINATES (ANGSTROEM)
---------------------------------
  C     -2.206710    1.290330   -0.296290
  C     -3.345960    0.467830   -0.204830
  C     -3.238280   -0.919050   -0.168540
  C     -1.988030   -1.519070   -0.222810
  C     -0.839940   -0.735200   -0.313600
  C     -0.906080    0.678790   -0.353140
  H     -4.334450    0.908640   -0.160900
  H     -4.129040   -1.530110   -0.098020
  H     -1.905730   -2.598120   -0.194490
  H      0.112990   -1.247320   -0.353280
  H      1.009630   -0.374760    8.672420
  N     -2.435890    2.697240   -0.326110
  H     -3.399840    3.059940   -0.281210
  H     -1.703860    3.408870   -0.390450
  N      0.332240    1.408250   -0.447510
  O      0.358040    2.598110   -0.485600
  O      1.370880    0.819280   -0.489790

----------------------------
CARTESIAN COORDINATES (A.U.)
----------------------------
  NO LB      ZA    FRAG     MASS         X           Y           Z
   0 C     6.0000    0    12.011   -4.170078    2.438370   -0.559907
   1 C     6.0000    0    12.011   -6.322948    0.884071   -0.387073
   2 C     6.0000    0    12.011   -6.119462   -1.736753   -0.318494
   3 C     6.0000    0    12.011   -3.756832   -2.870626   -0.421050
   4 C     6.0000    0    12.011   -1.587257   -1.389327   -0.592618
   5 C     6.0000    0    12.011   -1.712243    1.282727   -0.667338
   6 H     1.0000    0     1.008   -8.190923    1.717081   -0.304057
   7 H     1.0000    0     1.008   -7.802755   -2.891489   -0.185231
   8 H     1.0000    0     1.008   -3.601308   -4.909735   -0.367533
   9 H     1.0000    0     1.008    0.213520   -2.357093   -0.667602
  10 H     1.0000    0     1.008    1.907924   -0.708194   16.388499
  11 N     7.0000    0    14.007   -4.603165    5.097045   -0.616259
  12 H     1.0000    0     1.008   -6.424766    5.782449   -0.531410
  13 H     1.0000    0     1.008   -3.219829    6.441831   -0.737844
  14 N     7.0000    0    14.007    0.627843    2.661207   -0.845671
  15 O     8.0000    0    15.999    0.676598    4.909716   -0.917651
  16 O     8.0000    0    15.999    2.590588    1.548215   -0.925569

--------------------------------
INTERNAL COORDINATES (ANGSTROEM)
--------------------------------
 C      0   0   0     0.000000000000     0.00000000     0.00000000
 C      1   0   0     1.408105729020     0.00000000     0.00000000
 C      2   1   0     1.391527247631   121.41637892     0.00000000
 C      3   2   1     1.387837993355   119.97280317     0.00000000
 C      4   3   2     1.393128008871   120.11199326     0.00000000
 C      5   4   3     1.416088143902   121.67928901     0.00000000
 H      2   1   3     1.083215482303   120.21484864   180.00047488
 H      3   2   1     1.082506707416   120.04130452   180.00049152
 H      4   3   2     1.082554485881   119.89459547   180.00006858
 H      5   4   3     1.082551145074   117.49308044   179.99981272
 H     10   5   4     9.112002235140    90.28717078   265.59646976
 N      1   2   3     1.425765917989   116.59627521   180.00096923
 H     12   1   2     1.030905865004   119.77295832     0.00000000
 H     12   1   2     1.022949076641   124.94238431   179.99700630
 N      6   5   4     1.440296501037   117.86486817   180.00019443
 O     15   6   5     1.190749053201   121.79027535   179.99536327
 O     15   6   5     1.194757845298   120.00483750     0.00000000

---------------------------
INTERNAL COORDINATES (A.U.)
---------------------------
 C      0   0   0     0.000000000000     0.00000000     0.00000000
 C      1   0   0     2.660934195454     0.00000000     0.00000000
 C      2   1   0     2.629605405912   121.41637892     0.00000000
 C      3   2   1     2.622633725692   119.97280317     0.00000000
 C      4   3   2     2.632630406261   120.11199326     0.00000000
 C      5   4   3     2.676018773468   121.67928901     0.00000000
 H      2   1   3     2.046980605575   120.21484864   180.00047488
 H      3   2   1     2.045641215149   120.04130452   180.00049152
 H      4   3   2     2.045731503362   119.89459547   180.00006858
 H      5   4   3     2.045725190152   117.49308044   179.99981272
 H     10   5   4    17.219188756093    90.28717078   265.59646976
 N      1   2   3     2.694307116079   116.59627521   180.00096923
 H     12   1   2     1.948129754711   119.77295832     0.00000000
 H     12   1   2     1.933093603798   124.94238431   179.99700630
 N      6   5   4     2.721765938605   117.86486817   180.00019443
 O     15   6   5     2.250189604777   121.79027535   179.99536327
 O     15   6   5     2.257765123966   120.00483750     0.00000000

---------------------
BASIS SET INFORMATION
---------------------
There are 4 groups of distinct atoms

 Group   1 Type C   : 7s4p1d contracted to 3s2p1d pattern {511/31/1}
 Group   2 Type H   : 4s1p contracted to 2s1p pattern {31/1}
 Group   3 Type N   : 7s4p1d contracted to 3s2p1d pattern {511/31/1}
 Group   4 Type O   : 7s4p1d contracted to 3s2p1d pattern {511/31/1}

Atom   0C    basis set group =>   1
Atom   1C    basis set group =>   1
Atom   2C    basis set group =>   1
Atom   3C    basis set group =>   1
Atom   4C    basis set group =>   1
Atom   5C    basis set group =>   1
Atom   6H    basis set group =>   2
Atom   7H    basis set group =>   2
Atom   8H    basis set group =>   2
Atom   9H    basis set group =>   2
Atom  10H    basis set group =>   2
Atom  11N    basis set group =>   3
Atom  12H    basis set group =>   2
Atom  13H    basis set group =>   2
Atom  14N    basis set group =>   3
Atom  15O    basis set group =>   4
Atom  16O    basis set group =>   4
---------------------------------
AUXILIARY/J BASIS SET INFORMATION
---------------------------------
There are 4 groups of distinct atoms

 Group   1 Type C   : 12s5p4d2f1g contracted to 6s4p3d1f1g pattern {711111/2111/211/2/1}
 Group   2 Type H   : 5s2p1d contracted to 3s1p1d pattern {311/2/1}
 Group   3 Type N   : 12s5p4d2f1g contracted to 6s4p3d1f1g pattern {711111/2111/211/2/1}
 Group   4 Type O   : 12s5p4d2f1g contracted to 6s4p3d1f1g pattern {711111/2111/211/2/1}

Atom   0C    basis set group =>   1
Atom   1C    basis set group =>   1
Atom   2C    basis set group =>   1
Atom   3C    basis set group =>   1
Atom   4C    basis set group =>   1
Atom   5C    basis set group =>   1
Atom   6H    basis set group =>   2
Atom   7H    basis set group =>   2
Atom   8H    basis set group =>   2
Atom   9H    basis set group =>   2
Atom  10H    basis set group =>   2
Atom  11N    basis set group =>   3
Atom  12H    basis set group =>   2
Atom  13H    basis set group =>   2
Atom  14N    basis set group =>   3
Atom  15O    basis set group =>   4
Atom  16O    basis set group =>   4
------------------------------------------------------------------------------
                           ORCA GTO INTEGRAL CALCULATION
                           -- RI-GTO INTEGRALS CHOSEN --
------------------------------------------------------------------------------
------------------------------------------------------------------------------
                   ___                                                        
                  /   \      - P O W E R E D   B Y -                         
                 /     \                                                     
                 |  |  |   _    _      __       _____    __    __             
                 |  |  |  | |  | |    /  \     |  _  \  |  |  /  |          
                  \  \/   | |  | |   /    \    | | | |  |  | /  /          
                 / \  \   | |__| |  /  /\  \   | |_| |  |  |/  /          
                |  |  |   |  __  | /  /__\  \  |    /   |      \           
                |  |  |   | |  | | |   __   |  |    \   |  |\   \          
                \     /   | |  | | |  |  |  |  | |\  \  |  | \   \       
                 \___/    |_|  |_| |__|  |__|  |_| \__\ |__|  \__/        
                                                                              
                      - O R C A' S   B I G   F R I E N D -                    
                                      &                                       
                       - I N T E G R A L  F E E D E R -                       
                                                                              
 v1 FN, 2020, v2 2021                                                         
------------------------------------------------------------------------------


Reading SHARK input file opt.SHARKINP.tmp ... ok
----------------------
SHARK INTEGRAL PACKAGE
----------------------

Number of atoms                             ...     17
Number of basis functions                   ...    175
Number of shells                            ...     81
Maximum angular momentum                    ...      2
Integral batch strategy                     ... SHARK/LIBINT Hybrid
RI-J (if used) integral strategy            ... SPLIT-RIJ (Revised 2003 algorithm where possible)
Printlevel                                  ...      1
Contraction scheme used                     ... SEGMENTED contraction
Coulomb Range Separation                    ... NOT USED
Exchange Range Separation                   ... NOT USED
Finite Nucleus Model                        ... NOT USED
Auxiliary Coulomb fitting basis             ... AVAILABLE
   # of basis functions in Aux-J            ...    567
   # of shells in Aux-J                     ...    185
   Maximum angular momentum in Aux-J        ...      4
Auxiliary J/K fitting basis                 ... NOT available
Auxiliary Correlation fitting basis         ... NOT available
Auxiliary 'external' fitting basis          ... NOT available
Integral threshold                          ...     2.500000e-11
Primitive cut-off                           ...     2.500000e-12
Primitive pair pre-selection threshold      ...     2.500000e-12

Calculating pre-screening integrals         ... done (  0.1 sec) Dimension = 81
Organizing shell pair data                  ... done (  0.1 sec)
Shell pair information
Total number of shell pairs                 ...      3321
Shell pairs after pre-screening             ...      2863
Total number of primitive shell pairs       ...     12241
Primitive shell pairs kept                  ...      7561
          la=0 lb=0:    842 shell pairs
          la=1 lb=0:   1023 shell pairs
          la=1 lb=1:    332 shell pairs
          la=2 lb=0:    378 shell pairs
          la=2 lb=1:    238 shell pairs
          la=2 lb=2:     50 shell pairs

Calculating one electron integrals          ... done (  0.0 sec)
Calculating RI/J V-Matrix + Cholesky decomp.... done (  0.0 sec)
Calculating Nuclear repulsion               ... done (  0.0 sec) ENN=    510.401151922688 Eh

SHARK setup successfully completed in   3.6 seconds

Maximum memory used throughout the entire GTOINT-calculation: 24.2 MB
-------------------------------------------------------------------------------
                                 ORCA SCF
-------------------------------------------------------------------------------

------------
SCF SETTINGS
------------
Hamiltonian:
 Density Functional     Method          .... DFT(GTOs)
 Exchange Functional    Exchange        .... B88
   X-Alpha parameter    XAlpha          ....  0.666667
   Becke's b parameter  XBeta           ....  0.004200
 Correlation Functional Correlation     .... LYP
 LDA part of GGA corr.  LDAOpt          .... VWN-5
 Gradients option       PostSCFGGA      .... off
 Hybrid DFT is turned on
   Fraction HF Exchange ScalHFX         ....  0.200000
   Scaling of DF-GGA-X  ScalDFX         ....  0.720000
   Scaling of DF-GGA-C  ScalDFC         ....  0.810000
   Scaling of DF-LDA-C  ScalLDAC        ....  1.000000
   Perturbative correction              ....  0.000000
   Density functional embedding theory  .... OFF
   NL short-range parameter             ....  4.800000
 RI-approximation to the Coulomb term is turned on
   Number of AuxJ basis functions       .... 567
   RIJ-COSX (HFX calculated with COS-X)).... on


General Settings:
 Integral files         IntName         .... opt
 Hartree-Fock type      HFTyp           .... RHF
 Total Charge           Charge          ....    1
 Multiplicity           Mult            ....    1
 Number of Electrons    NEL             ....   72
 Basis Dimension        Dim             ....  175
 Nuclear Repulsion      ENuc            ....    510.4011519227 Eh

Convergence Acceleration:
 DIIS                   CNVDIIS         .... on
   Start iteration      DIISMaxIt       ....    12
   Startup error        DIISStart       ....  0.200000
   # of expansion vecs  DIISMaxEq       ....     5
   Bias factor          DIISBfac        ....   1.050
   Max. coefficient     DIISMaxC        ....  10.000
 Trust-Rad. Augm. Hess. CNVTRAH         .... auto
   Auto Start mean grad. ratio tolernc. ....  1.125000
   Auto Start start iteration           ....    20
   Auto Start num. interpolation iter.  ....    10
   Max. Number of Micro iterations      ....    16
   Max. Number of Macro iterations      .... Maxiter - #DIIS iter
   Number of Davidson start vectors     ....     2
   Converg. threshold I  (grad. norm)   ....   1.000e-05
   Converg. threshold II (energy diff.) ....   1.000e-08
   Grad. Scal. Fac. for Micro threshold ....   0.100
   Minimum threshold for Micro iter.    ....   0.010
   NR start threshold (gradient norm)   ....   0.001
   Initial trust radius                 ....   0.400
   Minimum AH scaling param. (alpha)    ....   1.000
   Maximum AH scaling param. (alpha)    .... 1000.000
   Orbital update algorithm             .... Taylor
   White noise on init. David. guess    .... on
   Maximum white noise                  ....   0.010
   Quad. conv. algorithm                .... NR
 SOSCF                  CNVSOSCF        .... on
   Start iteration      SOSCFMaxIt      ....   150
   Startup grad/error   SOSCFStart      ....  0.003300
 Level Shifting         CNVShift        .... on
   Level shift para.    LevelShift      ....    0.2500
   Turn off err/grad.   ShiftErr        ....    0.0010
 Zerner damping         CNVZerner       .... off
 Static damping         CNVDamp         .... on
   Fraction old density DampFac         ....    0.7000
   Max. Damping (<1)    DampMax         ....    0.9800
   Min. Damping (>=0)   DampMin         ....    0.0000
   Turn off err/grad.   DampErr         ....    0.1000
 Fernandez-Rico         CNVRico         .... off

SCF Procedure:
 Maximum # iterations   MaxIter         ....   125
 SCF integral mode      SCFMode         .... Direct
   Integral package                     .... SHARK and LIBINT hybrid scheme
 Reset frequency        DirectResetFreq ....    20
 Integral Threshold     Thresh          ....  2.500e-11 Eh
 Primitive CutOff       TCut            ....  2.500e-12 Eh

Convergence Tolerance:
 Convergence Check Mode ConvCheckMode   .... Total+1el-Energy
 Convergence forced     ConvForced      .... 0
 Energy Change          TolE            ....  1.000e-08 Eh
 1-El. energy change                    ....  1.000e-05 Eh
 Orbital Gradient       TolG            ....  1.000e-05
 Orbital Rotation angle TolX            ....  1.000e-05
 DIIS Error             TolErr          ....  5.000e-07


Diagonalization of the overlap matrix:
Smallest eigenvalue                        ... 2.125e-04
Time for diagonalization                   ...    0.016 sec
Threshold for overlap eigenvalues          ... 1.000e-08
Number of eigenvalues below threshold      ... 0
Time for construction of square roots      ...    0.007 sec
Total time needed                          ...    0.023 sec

Time for model grid setup =    0.679 sec

------------------------------
INITIAL GUESS: MODEL POTENTIAL
------------------------------
Loading Hartree-Fock densities                     ... done
Calculating cut-offs                               ... done
Initializing the effective Hamiltonian             ... done
Setting up the integral package (SHARK)            ... done
Starting the Coulomb interaction                   ... done (   0.7 sec)
Reading the grid                                   ... done
Mapping shells                                     ... done
Starting the XC term evaluation                    ... done (   0.7 sec)
  promolecular density results
     # of electrons  =     72.993619620
     EX              =    -62.448062641
     EC              =     -2.506988411
     EX+EC           =    -64.955051052
Transforming the Hamiltonian                       ... done (   0.0 sec)
Diagonalizing the Hamiltonian                      ... done (   0.0 sec)
Back transforming the eigenvectors                 ... done (   0.0 sec)
Now organizing SCF variables                       ... done
                      ------------------
                      INITIAL GUESS DONE (   2.1 sec)
                      ------------------
-------------------
DFT GRID GENERATION
-------------------

General Integration Accuracy     IntAcc      ... 4.388
Radial Grid Type                 RadialGrid  ... OptM3 with GC (2021)
Angular Grid (max. ang.)         AngularGrid ... 4 (Lebedev-302)
Angular grid pruning method      GridPruning ... 4 (adaptive)
Weight generation scheme         WeightScheme... Becke
Basis function cutoff            BFCut       ... 1.0000e-11
Integration weight cutoff        WCut        ... 1.0000e-14
Angular grids for H and He will be reduced by one unit
Partially contracted basis set               ... off
Rotationally invariant grid construction     ... off

Total number of grid points                  ...    82914
Total number of batches                      ...     1304
Average number of points per batch           ...       63
Average number of grid points per atom       ...     4877
Time for grid setup =    3.408 sec

--------------------
COSX GRID GENERATION
--------------------

GRIDX 1
-------
General Integration Accuracy     IntAcc      ... 3.816
Radial Grid Type                 RadialGrid  ... OptM3 with GC (2021)
Angular Grid (max. ang.)         AngularGrid ... 1 (Lebedev-50)
Angular grid pruning method      GridPruning ... 4 (adaptive)
Weight generation scheme         WeightScheme... Becke
Basis function cutoff            BFCut       ... 1.0000e-11
Integration weight cutoff        WCut        ... 1.0000e-14
Angular grids for H and He will be reduced by one unit
Partially contracted basis set               ... on
Rotationally invariant grid construction     ... off

Total number of grid points                  ...    10590
Total number of batches                      ...      173
Average number of points per batch           ...       61
Average number of grid points per atom       ...      623
UseSFitting                                  ... on

GRIDX 2
-------
General Integration Accuracy     IntAcc      ... 4.020
Radial Grid Type                 RadialGrid  ... OptM3 with GC (2021)
Angular Grid (max. ang.)         AngularGrid ... 2 (Lebedev-110)
Angular grid pruning method      GridPruning ... 4 (adaptive)
Weight generation scheme         WeightScheme... Becke
Basis function cutoff            BFCut       ... 1.0000e-11
Integration weight cutoff        WCut        ... 1.0000e-14
Angular grids for H and He will be reduced by one unit
Partially contracted basis set               ... on
Rotationally invariant grid construction     ... off

Total number of grid points                  ...    23390
Total number of batches                      ...      374
Average number of points per batch           ...       62
Average number of grid points per atom       ...     1376
UseSFitting                                  ... on

GRIDX 3
-------
General Integration Accuracy     IntAcc      ... 4.338
Radial Grid Type                 RadialGrid  ... OptM3 with GC (2021)
Angular Grid (max. ang.)         AngularGrid ... 3 (Lebedev-194)
Angular grid pruning method      GridPruning ... 4 (adaptive)
Weight generation scheme         WeightScheme... Becke
Basis function cutoff            BFCut       ... 1.0000e-11
Integration weight cutoff        WCut        ... 1.0000e-14
Angular grids for H and He will be reduced by one unit
Partially contracted basis set               ... on
Rotationally invariant grid construction     ... off

Total number of grid points                  ...    51536
Total number of batches                      ...      814
Average number of points per batch           ...       63
Average number of grid points per atom       ...     3032
UseSFitting                                  ... on

Time for X-Grid setup             =    3.156 sec

--------------
SCF ITERATIONS
--------------
ITER       Energy         Delta-E        Max-DP      RMS-DP      [F,P]     Damp
               ***  Starting incremental Fock matrix formation  ***
  0   -491.1804889316   0.000000000000 0.20729140  0.00388951  0.2418124 0.7000
  1   -491.4666985389  -0.286209607236 0.15059660  0.00250610  0.0910108 0.7000
                               ***Turning on DIIS***
  2   -491.4821072665  -0.015408727640 0.37999099  0.00530841  0.0360865 0.0000
  3   -491.1358480186   0.346259247930 0.18940669  0.00249399  0.2005497 0.7000
  4   -491.4745810280  -0.338733009441 0.44194895  0.00584717  0.0587248 0.0000
  5   -491.4240715344   0.050509493573 0.00665368  0.00017436  0.1172789 0.7000
  6   -491.4297645295  -0.005692995066 0.00706959  0.00019099  0.1088235 0.7000
  7   -491.4354626628  -0.005698133326 0.01595761  0.00036944  0.1002175 0.7000
  8   -491.4420689734  -0.006606310603 0.04023374  0.00098714  0.0811057 0.0000
  9   -491.4539924090  -0.011923435546 0.75516471  0.00856918  0.0568572 0.0000
 10   -490.9826141300   0.471378278934 0.04769787  0.00048530  0.2899769 0.7000
 11   -491.0135712359  -0.030957105841 0.04709453  0.00049295  0.2689271 0.7000
 12   -491.0421243759  -0.028553139986 0.03760025  0.00040155  0.2475101 0.7000
 13   -491.0640491083  -0.021924732426 0.02401562  0.00027748  0.2301847 0.7000
 14   -491.0798555234  -0.015806415117 0.17962694  0.00277859  0.2192129 0.7000
 15   -491.4636258871  -0.383770363666 0.41912952  0.00604818  0.0706753 0.0000
 16   -491.3936479067   0.069977980339 0.01163695  0.00031737  0.1262090 0.7000
 17   -491.4059286046  -0.012280697890 0.01228382  0.00034913  0.1125028 0.7000
 18   -491.4177983316  -0.011869726979 0.03518193  0.00102224  0.0987387 0.0000
 19   -491.4467080814  -0.028909749815 0.01069319  0.00033847  0.0650657 0.0000
               *** Restarting incremental Fock matrix formation ***
                                   *** Resetting DIIS ***
 20   -491.4534170711  -0.006708989713 0.75558920  0.00874074  0.0565350 0.0000

 WARNING: the maximum gradient error descreased on average only by a factor   1.1
          during the last 20 iterations

                      *** Initiating the TRAH-SCF procedure ***


TRAH GRIDX
----------

General Integration Accuracy     IntAcc      ... 3.067
Radial Grid Type                 RadialGrid  ... OptM3 with GC (2021)
Angular Grid (max. ang.)         AngularGrid ... 1 (Lebedev-50)
Angular grid pruning method      GridPruning ... 4 (adaptive)
Weight generation scheme         WeightScheme... Becke
Basis function cutoff            BFCut       ... 1.0000e-11
Integration weight cutoff        WCut        ... 1.0000e-14
Angular grids for H and He will be reduced by one unit
Partially contracted basis set               ... on
Rotationally invariant grid construction     ... off

Total number of grid points                  ...     5608
Total number of batches                      ...      100
Average number of points per batch           ...       56
Average number of grid points per atom       ...      330


TRAH GRID
---------

General Integration Accuracy     IntAcc      ... 3.467
Radial Grid Type                 RadialGrid  ... OptM3 with GC (2021)
Angular Grid (max. ang.)         AngularGrid ... 1 (Lebedev-50)
Angular grid pruning method      GridPruning ... 4 (adaptive)
Weight generation scheme         WeightScheme... Becke
Basis function cutoff            BFCut       ... 1.0000e-11
Integration weight cutoff        WCut        ... 1.0000e-14
Angular grids for H and He will be reduced by one unit
Partially contracted basis set               ... off
Rotationally invariant grid construction     ... off

Total number of grid points                  ...    12312
Total number of batches                      ...      201
Average number of points per batch           ...       61
Average number of grid points per atom       ...      724

 --------------------------------------------------------------------------------------------
   Iter.        energy            ||Error||_2        Shift      TRadius  Mac/Mic        Rej.
 --------------------------------------------------------------------------------------------
WARNING: 40 diagonal Hessian elements are negative!
    0       -490.927937634889     1.833296e+00                     0.400 (TRAH MAcro)   No
WARNING : negative HOMO - LUMO gap : -0.968547
    0     dE    -2.218692e-01     1.199831e+00    -4.2146e-01      0.230 (TRAH MIcro)
    0     dE    -2.934646e-01     5.606163e-01    -5.2784e-01      0.335 (TRAH MIcro)
    0     dE    -1.967982e-01     3.364207e-01    -6.2328e+00      0.147 (TRAH MIcro)
    0     dE    -1.980519e-01     2.141629e-01    -6.2613e+00      0.147 (TRAH MIcro)
    0     dE    -1.988865e-01     2.566471e-02    -6.2881e+00      0.147 (TRAH MIcro)
    0     dE    -1.988874e-01     1.548998e-02    -6.2886e+00      0.147 (TRAH MIcro)
    0     dE    -1.988723e-01     2.788936e-03    -6.2889e+00      0.147 (TRAH MIcro)
WARNING: 30 diagonal Hessian elements are negative!
    1       -491.126089280534     9.117140e-01                     0.480 (TRAH MAcro)   No
WARNING : negative HOMO - LUMO gap : -0.788702
    1     dE    -6.997107e-02     4.548541e-01    -1.3686e-01      0.150 (TRAH MIcro)
    1     dE    -9.064423e-02     4.555675e-01    -1.7237e-01      0.227 (TRAH MIcro)
    1     dE    -7.782771e-02     1.379835e-01    -2.6050e+00      0.135 (TRAH MIcro)
    1     dE    -3.819110e-01     9.399041e-01    -2.8108e+00      0.480 (TRAH MIcro)
    1     dE    -5.786998e-02     6.718806e-02    -5.7905e+00      0.084 (TRAH MIcro)
    1     dE    -5.807081e-02     3.445220e-02    -5.8047e+00      0.084 (TRAH MIcro)
    1     dE    -5.812389e-02     6.698020e-03    -5.8083e+00      0.084 (TRAH MIcro)
WARNING: 26 diagonal Hessian elements are negative!
    2       -491.184185324188     4.892970e-01                     0.576 (TRAH MAcro)   No
WARNING : negative HOMO - LUMO gap : -0.702257
    2     dE    -2.532197e-02     2.464944e-01    -5.0118e-02      0.102 (TRAH MIcro)
    2     dE    -3.377124e-02     1.757196e-01    -6.5335e-02      0.184 (TRAH MIcro)
    2     dE    -3.925214e-02     1.232536e+00    -7.3112e-02      0.272 (TRAH MIcro)
    2     dE    -8.621082e-02     1.989382e-01    -2.7497e+00      0.223 (TRAH MIcro)
    2     dE    -4.129504e-01     1.795724e-01    -2.8297e+00      0.528 (TRAH MIcro)
    2     dE    -1.818478e-02     4.550306e-02    -6.2349e+00      0.047 (TRAH MIcro)
    2     dE    -1.829679e-02     2.737758e-02    -6.2536e+00      0.047 (TRAH MIcro)
    2     dE    -1.836081e-02     6.729798e-03    -6.2650e+00      0.047 (TRAH MIcro)
WARNING: 24 diagonal Hessian elements are negative!
    3       -491.202550781856     2.967377e-01                     0.691 (TRAH MAcro)   No
WARNING : negative HOMO - LUMO gap : -0.661848
    3     dE    -1.138313e-02     1.522285e-01    -2.2635e-02      0.076 (TRAH MIcro)
    3     dE    -1.550067e-02     1.314894e-01    -3.0406e-02      0.140 (TRAH MIcro)
    3     dE    -1.724573e-02     2.365753e-01    -3.3444e-02      0.177 (TRAH MIcro)
    3     dE    -9.531995e-03     5.013035e-02    -3.4531e+00      0.044 (TRAH MIcro)
    3     dE    -9.795017e-03     1.221782e-02    -3.5101e+00      0.044 (TRAH MIcro)
    3     dE    -9.810631e-03     3.636996e-03    -3.5127e+00      0.044 (TRAH MIcro)
WARNING: 22 diagonal Hessian elements are negative!
    4       -491.212368304847     1.560868e-01                     0.829 (TRAH MAcro)   No
WARNING : negative HOMO - LUMO gap : -0.632141
    4     dE    -4.115593e-03     8.863917e-02    -8.2085e-03      0.053 (TRAH MIcro)
    4     dE    -6.111176e-03     1.186989e-01    -1.2088e-02      0.105 (TRAH MIcro)
    4     dE    -8.701244e-03     8.283709e-01    -1.6613e-02      0.218 (TRAH MIcro)
    4     dE    -2.982926e-03     2.569137e-02    -3.8435e+00      0.024 (TRAH MIcro)
    4     dE    -3.065227e-03     5.372043e-03    -3.8966e+00      0.025 (TRAH MIcro)
WARNING: 21 diagonal Hessian elements are negative!
    5       -491.215434865978     9.652765e-02                     0.995 (TRAH MAcro)   No
WARNING : negative HOMO - LUMO gap : -0.619578
    5     dE    -2.075731e-03     7.090624e-02    -4.1438e-03      0.043 (TRAH MIcro)
    5     dE    -3.394413e-03     9.180694e-02    -6.7303e-03      0.093 (TRAH MIcro)
    5     dE    -5.093503e-03     6.400953e-01    -9.8245e-03      0.192 (TRAH MIcro)
    5     dE    -1.333984e-02     1.355055e-01    -2.3257e+00      0.103 (TRAH MIcro)
    5     dE    -1.358786e-01     7.738076e-02    -2.5041e+00      0.328 (TRAH MIcro)
    5     dE    -1.620682e-01     4.461340e-02    -2.5209e+00      0.357 (TRAH MIcro)
    5     dE    -2.048790e-01     1.618116e-02    -2.5228e+00      0.402 (TRAH MIcro)
    5     dE    -2.520338e-01     5.910894e-03    -2.5231e+00      0.446 (TRAH MIcro)
WARNING: 6 diagonal Hessian elements are negative!
    6       -491.408216051008     6.895402e-01                     1.194 (TRAH MAcro)   No
WARNING : negative HOMO - LUMO gap : -0.247146
    6     dE    -3.406354e-01     1.994044e+00    -4.6636e-01      0.679 (TRAH MIcro)
    6     dE    -5.437406e-01     5.940123e-01    -6.0274e-01      0.897 (TRAH MIcro)
    6     dE    -5.856135e-01     2.337239e-01    -6.2361e-01      0.937 (TRAH MIcro)
    6     dE    -6.247129e-01     3.588450e-01    -6.3548e-01      0.983 (TRAH MIcro)
    6     dE    -8.099155e-01     5.879436e-01    -6.9801e-01      1.194 (TRAH MIcro)
    6     dE    -8.301120e-01     1.650743e-01    -7.5904e-01      1.194 (TRAH MIcro)
    6     dE    -8.336162e-01     1.184852e-01    -7.6949e-01      1.194 (TRAH MIcro)
    6     dE    -8.302504e-01     1.346373e-01    -7.8236e-01      1.186 (TRAH MIcro)
    6     dE    -6.671546e-01     3.788556e-02    -8.1302e-01      0.997 (TRAH MIcro)
    6     dE    -6.692338e-01     1.132693e-02    -8.1311e-01      1.000 (TRAH MIcro)
    6     dE    -6.694893e-01     4.418523e-03    -8.1312e-01      1.000 (TRAH MIcro)
WARNING: 15 diagonal Hessian elements are negative!
    7       -491.426260244917     6.600160e-01                     0.836 (TRAH MAcro)   No
WARNING : negative HOMO - LUMO gap : -0.318632
    7     dE    -7.031742e-02     1.807976e+00    -1.3340e-01      0.233 (TRAH MIcro)
    7     dE    -5.296574e-01     1.255832e+00    -9.6765e-01      0.836 (TRAH MIcro)
    7     dE    -6.322167e-01     3.555359e-01    -1.3299e+00      0.836 (TRAH MIcro)
    7     dE    -6.406884e-01     7.872196e-02    -1.3665e+00      0.836 (TRAH MIcro)
    7     dE    -6.412654e-01     3.062571e-02    -1.3687e+00      0.836 (TRAH MIcro)
    7     dE    -6.413943e-01     2.199080e-02    -1.3697e+00      0.836 (TRAH MIcro)
    7     dE    -6.414633e-01     1.640325e-02    -1.3710e+00      0.836 (TRAH MIcro)
    7     dE    -6.414890e-01     6.835706e-03    -1.3715e+00      0.836 (TRAH MIcro)
 ---------------------------------
          TRAH Step control 
 ---------------------------------
  predicted energy change = -0.641489
  actual energy  change   = 0.036570
  energy change ratio     = -0.057009
  old trust radius        = 0.836076
  new trust radius        = 0.585253
[...]
   254. D(O  15,H  10,C   1,C   2)    133.02 -0.000002    0.19    133.21   
   255. D(O  15,H  10,C   1,H   6)   -101.24 -0.000007    0.35   -100.89   
   256. D(O  16,H  10,C   1,C   0)    -38.17 -0.000003   -0.12    -38.29   
   257. D(C   3,H  10,C   1,C   0)   -115.10  0.000002   -0.31   -115.42   
   258. D(O  16,H  10,C   1,H   6)   -134.83 -0.000009    0.23   -134.60   
   259. D(C   0,H  10,C   2,C   1)    -20.37 -0.000002    0.12    -20.25   
   260. D(C   0,H  10,C   2,C   3)    109.58 -0.000002    0.29    109.87   
   261. D(O  16,H  10,C   5,C   0)   -139.52 -0.000008    0.22   -139.29   
   262. D(C   1,H  10,C   2,C   3)    129.95 -0.000000    0.17    130.12   
   263. D(C   1,H  10,C   2,H   7)   -132.98  0.000003   -0.17   -133.15   
   264. D(C   3,H  10,C   2,C   1)   -129.95  0.000000   -0.17   -130.12   
   265. D(N  11,H  10,H   8,C   3)      0.02 -0.000001   -0.01      0.01   
   266. D(C   4,H  10,C   2,C   1)    -87.44  0.000000    0.02    -87.42   
   267. D(C   4,H  10,C   2,C   3)     42.51 -0.000000    0.19     42.70   
   268. D(C   4,H  10,C   2,H   7)    139.58  0.000003   -0.15    139.43   
   269. D(C   3,H  10,H   9,C   4)     40.20 -0.000005    0.19     40.39   
   270. D(C   5,H  10,C   2,C   3)     82.12 -0.000003    0.35     82.48   
   271. D(N  14,H  10,H   9,C   4)    -62.05 -0.000002    0.20    -61.85   
   272. D(C   4,H  10,C   0,N  11)   -156.58 -0.000001   -0.12   -156.70   
   273. D(C   1,H  10,C   4,C   3)    -73.77  0.000007   -0.33    -74.10   
   274. D(O  16,H  10,C   3,C   2)   -100.86 -0.000011    0.36   -100.51   
   275. D(C   2,H  10,C   1,H   6)    125.74 -0.000005    0.16    125.90   
   276. D(O  15,H  10,C   3,C   4)     26.84  0.000001   -0.03     26.80   
   277. D(O  15,H  10,C   3,C   2)    -74.55 -0.000004    0.31    -74.24   
   278. D(C   0,H  10,C   1,H   6)    -96.66 -0.000006    0.35    -96.31   
   279. D(N  14,H  10,C   3,H   8)    146.55 -0.000003    0.16    146.71   
   280. D(N  14,H  10,C   0,C   5)     42.21  0.000001    0.24     42.45   
   281. D(C   2,H  10,C   3,C   4)    101.39  0.000005   -0.35    101.04   
   282. D(C   1,H  10,C   3,H   8)   -157.90  0.000000   -0.13   -158.03   
   283. D(C   4,H  10,C   3,C   2)   -101.39 -0.000005    0.35   -101.04   
   284. D(H   9,H  10,C   3,C   4)    -33.05  0.000002   -0.14    -33.19   
   285. D(O  16,H  10,C   0,C   1)    128.55 -0.000001   -0.20    128.35   
   286. D(H   9,H  10,C   3,C   2)   -134.44 -0.000003    0.21   -134.23   
   287. D(C   5,H  10,C   3,H   8)    157.03 -0.000004    0.13    157.16   
   288. D(C   5,H  10,C   3,C   4)     28.55  0.000001   -0.04     28.51   
   289. D(O  15,H  10,C   0,N  11)    -50.57 -0.000003    0.21    -50.36   
   290. D(C   4,H  10,C   3,H   8)    128.48 -0.000004    0.17    128.65   
   291. D(C   2,H  10,C   3,H   8)   -130.13  0.000000   -0.18   -130.31   
   292. D(H   9,H  10,C   3,H   8)     95.43 -0.000003    0.03     95.46   
   293. D(H   8,H  10,C   3,C   4)   -128.48  0.000004   -0.17   -128.65   
   294. D(N  11,H  10,C   3,H   8)   -179.97 -0.000001   -0.01   -179.98   
   295. D(N  14,H  10,C   3,C   2)    -83.32 -0.000003    0.34    -82.98   
   296. D(O  16,H  10,C   0,N  11)    -95.45 -0.000004    0.01    -95.44   
   297. D(N  14,H  10,C   0,N  11)    -80.51  0.000001    0.10    -80.41   
   298. D(O  16,H  10,C   0,C   5)     27.27 -0.000003    0.15     27.41   
   299. D(O  15,H  10,C   0,C   1)    173.43 -0.000000    0.01    173.43   
   300. D(C   5,H  10,C   3,C   2)    -72.83 -0.000004    0.31    -72.53   
   301. D(C   1,H  10,C   3,C   4)     73.62  0.000004   -0.30     73.32   
   302. D(H   8,H  10,C   3,C   2)    130.13 -0.000000    0.18    130.31   
   303. D(N  14,H  10,C   0,C   1)    143.49  0.000003   -0.11    143.38   
   304. D(O  15,H  10,C   0,C   5)     72.15 -0.000002    0.35     72.50   
   305. D(C   1,H  10,C   3,C   2)    -27.77 -0.000000    0.05    -27.72   
   306. D(C   0,H  10,C   3,H   8)    179.71 -0.000002   -0.00    179.70   
   307. D(H   9,H  10,C   2,C   3)     29.10  0.000000    0.11     29.21   
   308. D(C   0,H  10,C   3,C   2)    -50.16 -0.000003    0.18    -49.98   
   309. D(N  11,H  10,C   3,C   4)     51.55  0.000003   -0.18     51.37   
   310. D(C   0,H  10,C   1,C   2)    137.60 -0.000002    0.19    137.79   
   311. D(C   3,H  10,C   1,C   2)     22.49  0.000000   -0.12     22.37   
   312. D(N  14,H  10,C   3,C   4)     18.07  0.000002   -0.00     18.06   
   313. D(O  16,H  10,C   2,H   7)    162.87 -0.000004   -0.01    162.86   
   314. D(H   8,H  10,C   0,C   1)     43.05 -0.000000   -0.19     42.86   
   315. D(O  15,H  10,C   3,H   8)    155.32 -0.000003    0.13    155.45   
   316. D(C   2,H  10,C   1,C   0)   -137.60  0.000002   -0.19   -137.79   
   317. D(N  11,H  10,C   2,H   7)   -145.67  0.000002   -0.09   -145.76   
   318. D(O  16,H  10,C   3,C   4)      0.52 -0.000006    0.01      0.53   
   319. D(O  16,H  10,C   3,H   8)    129.00 -0.000010    0.18    129.18   
   320. D(C   0,H  10,C   4,C   3)   -104.87  0.000005   -0.30   -105.16   
   321. D(O  16,H  10,C   2,C   3)     65.80 -0.000008    0.32     66.12   
   322. D(H   8,H  10,C   0,C   5)    -58.23 -0.000002    0.16    -58.07   
   323. D(O  15,H  10,C   2,C   3)     93.87 -0.000003    0.35     94.22   
   324. D(C   1,H  10,C   4,C   5)     55.30  0.000004   -0.17     55.13   
   325. D(N  14,H  10,C   2,H   7)    178.39  0.000002    0.02    178.41   
   326. D(C   2,H  10,C   4,C   3)    -36.35  0.000005   -0.15    -36.51   
   327. D(C   2,H  10,C   4,C   5)     92.72  0.000001    0.01     92.73   
   328. D(C   2,H  10,C   4,H   9)   -143.35 -0.000002    0.18   -143.17   
   329. D(H   9,H  10,C   0,C   1)     77.23  0.000004   -0.36     76.87   
   330. D(N  14,H  10,C   2,C   3)     81.33 -0.000002    0.36     81.68   
   331. D(C   5,H  10,C   4,C   3)   -129.07  0.000003   -0.16   -129.23   
   332. D(C   5,H  10,C   4,H   9)    123.94 -0.000004    0.17    124.11   
   333. D(H   8,H  10,C   0,N  11)    179.05 -0.000003    0.02    179.07   
   334. D(H   8,H  10,C   4,C   5)    153.76 -0.000002    0.13    153.89   
   335. D(H   8,H  10,C   4,H   9)    -82.30 -0.000005    0.30    -82.00   
   336. D(H   9,H  10,C   4,C   3)    106.99  0.000007   -0.33    106.66   
   337. D(N  14,H  10,C   2,C   1)    -48.63 -0.000001    0.19    -48.44   
   338. D(O  15,H  10,C   2,C   1)    -36.08 -0.000002    0.18    -35.90   
   339. D(N  11,H  10,C   3,C   2)    -49.84 -0.000002    0.17    -49.67   
   340. D(H   9,H  10,C   0,N  11)   -146.78  0.000001   -0.15   -146.93   
   341. D(N  11,H  10,C   2,C   3)    117.26 -0.000002    0.25    117.51   
   342. D(N  14,H  10,C   4,C   5)    -25.11 -0.000001    0.13    -24.98   
   343. D(N  14,H  10,C   4,H   9)     98.83 -0.000004    0.30     99.13   
   344. D(O  15,H  10,C   4,C   3)   -145.61  0.000002   -0.07   -145.68   
   345. D(O  16,H  10,C   2,C   1)    -64.15 -0.000007    0.15    -64.00   
   346. D(N  11,H  10,C   2,C   1)    -12.69 -0.000002    0.08    -12.61   
   347. D(O  16,H  10,C   4,C   3)   -179.26 -0.000009    0.02   -179.24   
   348. D(O  16,H  10,C   4,C   5)    -50.19 -0.000012    0.18    -50.01   
   349. D(H   9,H  10,C   2,H   7)    126.17  0.000004   -0.23    125.94   
   350. D(C   0,H  10,C   5,C   4)   -122.22  0.000001   -0.15   -122.37   
   351. D(C   0,H  10,C   5,N  14)    108.03 -0.000001   -0.34    107.69   
   352. D(C   1,H  10,C   5,C   0)     41.22  0.000000    0.22     41.45   
   353. D(N  11,H  10,C   0,C   1)   -136.00  0.000003   -0.21   -136.21   
   354. D(O  15,H  10,C   2,H   7)   -169.06  0.000001    0.01   -169.05   
   355. D(C   2,H  10,C   5,C   0)     74.01 -0.000002    0.33     74.34   
   356. D(C   2,H  10,C   5,C   4)    -48.21 -0.000001    0.18    -48.03   
   357. D(C   2,H  10,C   5,N  14)   -177.96 -0.000003   -0.01   -177.97   
   358. D(C   3,H  10,C   5,C   0)     99.56 -0.000004    0.28     99.83   
   359. D(C   3,H  10,C   5,C   4)    -22.66 -0.000003    0.13    -22.54   
   360. D(C   3,H  10,C   5,N  14)   -152.41 -0.000004   -0.06   -152.48   
   361. D(N  11,H  10,C   0,C   5)    122.72  0.000001    0.14    122.86   
   362. D(C   4,H  10,C   5,N  14)   -129.75 -0.000002   -0.19   -129.94   
   363. D(H   8,H  10,C   5,C   0)    106.77 -0.000002    0.24    107.01   
   364. D(H   8,H  10,C   5,C   4)    -15.46 -0.000001    0.09    -15.37   
   365. D(H   8,H  10,C   5,N  14)   -145.21 -0.000003   -0.10   -145.31   
   366. D(H   9,H  10,C   5,C   0)    144.59  0.000003    0.02    144.61   
   367. D(H   9,H  10,C   5,C   4)     22.36  0.000004   -0.13     22.24   
   368. D(H   9,H  10,C   5,N  14)   -107.39  0.000002   -0.32   -107.70   
   369. D(C   5,H  10,C   0,N  11)   -122.72 -0.000001   -0.14   -122.86   
   370. D(H   9,H  10,C   2,C   1)   -100.85  0.000000   -0.06   -100.91   
   371. D(N  11,H  10,C   5,N  14)     77.38  0.000002   -0.34     77.03   
   372. D(N  14,H  10,C   5,C   0)   -108.03  0.000001    0.34   -107.69   
   373. D(N  14,H  10,C   5,C   4)    129.75  0.000002    0.19    129.94   
   374. D(O  15,H  10,C   5,C   0)    -83.75 -0.000003    0.29    -83.46   
   375. D(O  15,H  10,C   5,C   4)    154.03 -0.000001    0.14    154.17   
   376. D(O  15,H  10,C   5,N  14)     24.28 -0.000003   -0.05     24.23   
   377. D(H   8,H  10,C   2,H   7)     71.42  0.000002   -0.29     71.14   
   378. D(O  16,H  10,C   5,C   4)     98.26 -0.000007    0.07     98.33   
   379. D(O  16,H  10,C   5,N  14)    -31.49 -0.000008   -0.11    -31.61   
   380. D(C   0,H  10,H   8,C   3)     -0.21 -0.000002   -0.00     -0.22   
   381. D(C   1,H  10,H   8,C   3)     14.68 -0.000000   -0.09     14.58   
   382. D(C   2,H  10,H   8,C   3)     24.41 -0.000001   -0.14     24.27   
   383. D(C   4,H  10,H   8,C   3)    -27.05 -0.000003    0.14    -26.91   
   384. D(C   5,H  10,H   8,C   3)    -15.98 -0.000002    0.09    -15.88   
   385. D(C   5,H  10,C   0,C   1)    101.28  0.000002   -0.35    100.93   
   386. D(H   8,H  10,C   2,C   3)    -25.64 -0.000001    0.05    -25.60   
   387. D(N  14,H  10,H   8,C   3)    -26.40 -0.000002    0.14    -26.26   
   388. D(O  15,H  10,H   8,C   3)    -20.55 -0.000002    0.11    -20.43   
   389. D(O  16,H  10,H   8,C   3)    -41.06 -0.000009    0.18    -40.88   
   390. D(C   0,H  10,H   9,C   4)    -22.31 -0.000001    0.01    -22.30   
   391. D(C   1,H  10,H   9,C   4)     -0.52  0.000000    0.00     -0.52   
   392. D(C   2,H  10,H   9,C   4)     23.46 -0.000002    0.09     23.56   
   393. D(C   0,H  10,C   3,C   4)     51.23  0.000002   -0.17     51.06   
   394. D(C   5,H  10,H   9,C   4)    -33.96  0.000000    0.05    -33.91   
   395. D(H   8,H  10,H   9,C   4)     70.56 -0.000007    0.32     70.88   
   396. D(N  11,H  10,H   9,C   4)    -31.63 -0.000000    0.03    -31.60   
   397. D(H   9,H  10,C   0,C   5)    -24.06  0.000002   -0.01    -24.07   
   398. D(O  15,H  10,H   9,C   4)    -60.16 -0.000003    0.19    -59.97   
   399. D(O  16,H  10,H   9,C   4)    -85.36 -0.000015    0.32    -85.04   
   400. D(H   8,H  10,C   2,C   1)   -155.60 -0.000001   -0.12   -155.72   
   401. D(H  12,N  11,C   0,C   1)     -0.17 -0.000001   -0.00     -0.17   
   402. D(H  13,N  11,H  10,O  16)    -72.20  0.000005   -0.34    -72.54   
   403. D(H  13,N  11,H  10,O  15)    -33.73  0.000004   -0.10    -33.83   
   404. D(H  13,N  11,H  10,N  14)    -69.25  0.000007   -0.33    -69.58   
   405. D(H  13,N  11,H  10,H   9)   -111.77  0.000004   -0.36   -112.13   
   406. D(H  13,N  11,H  10,H   8)   -136.85  0.000000   -0.22   -137.06   
   407. D(H  13,N  11,H  10,C   5)   -109.25  0.000004   -0.38   -109.63   
   408. D(H  13,N  11,H  10,C   4)   -120.78  0.000002   -0.32   -121.10   
   409. D(H  13,N  11,H  10,C   2)   -150.41  0.000000   -0.13   -150.55   
   410. D(H  13,N  11,H  10,C   1)   -157.67 -0.000001   -0.09   -157.76   
   411. D(H  13,N  11,H  10,C   0)   -136.12  0.000003   -0.23   -136.35   
   412. D(H  12,N  11,H  10,O  15)   -143.61 -0.000005    0.25   -143.36   
   413. D(H  12,N  11,H  10,N  14)   -179.13 -0.000001    0.02   -179.11   
   414. D(H  12,N  11,H  10,H   9)    138.36 -0.000005   -0.02    138.34   
   415. D(H  12,N  11,H  10,C   5)    140.88 -0.000005   -0.03    140.84   
   416. D(H  12,N  11,H  10,C   4)    129.35 -0.000006    0.02    129.37   
   417. D(H  12,N  11,H  10,C   3)    113.29 -0.000008    0.12    113.41   
   418. D(H  12,N  11,H  10,C   2)     99.71 -0.000008    0.21     99.92   
   419. D(H  12,N  11,H  10,C   1)     92.45 -0.000009    0.25     92.71   
   420. D(H  12,N  11,H  10,C   0)    114.01 -0.000006    0.11    114.12   
   421. D(C   0,N  11,H  10,O  16)     63.92  0.000003   -0.11     63.80   
   422. D(C   0,N  11,H  10,O  15)    102.38  0.000001    0.13    102.52   
   423. D(C   0,N  11,H  10,N  14)     66.86  0.000005   -0.10     66.77   
   424. D(H  12,N  11,H  10,H   8)    113.28 -0.000008    0.12    113.40   
   425. D(C   0,N  11,H  10,H   9)     24.35  0.000002   -0.13     24.22   
   426. D(C   0,N  11,H  10,H   8)     -0.73 -0.000002    0.01     -0.72   
   427. D(C   0,N  11,H  10,C   5)     26.86  0.000001   -0.14     26.72   
   428. D(H  12,N  11,H  10,O  16)    177.93 -0.000003   -0.00    177.92   
   429. D(C   0,N  11,H  10,C   4)     15.34 -0.000000   -0.09     15.25   
   430. D(C   0,N  11,H  10,C   3)     -0.72 -0.000002    0.01     -0.71   
   431. D(C   0,N  11,H  10,C   2)    -14.30 -0.000002    0.10    -14.20   
   432. D(H  13,N  11,H  10,C   3)   -136.84  0.000000   -0.22   -137.06   
   433. D(C   0,N  11,H  10,C   1)    -21.56 -0.000003    0.14    -21.42   
   434. D(H  10,N  11,C   0,C   5)    -44.81  0.000001    0.36    -44.45   
   435. D(H  10,N  11,C   0,C   1)    135.17 -0.000002    0.36    135.53   
   436. D(H  13,N  11,C   0,H  10)     45.02  0.000002   -0.38     44.64   
   437. D(H  13,N  11,C   0,C   5)      0.20  0.000003   -0.02      0.18   
   438. D(H  13,N  11,C   0,C   1)   -179.81  0.000000   -0.02   -179.83   
   439. D(H  12,N  11,C   0,H  10)   -135.34  0.000001   -0.36   -135.70   
   440. D(H  12,N  11,C   0,C   5)    179.85  0.000002   -0.00    179.85   
   441. D(O  16,N  14,H  10,O  15)    122.92 -0.000005    0.12    123.04   
   442. D(O  16,N  14,H  10,H   9)    -63.17 -0.000002    0.16    -63.01   
   443. D(O  16,N  14,H  10,H   8)    -83.35 -0.000005    0.27    -83.08   
   444. D(O  16,N  14,H  10,C   5)   -108.33 -0.000002    0.33   -108.00   
   445. D(O  16,N  14,H  10,C   3)    -90.89 -0.000006    0.30    -90.59   
   446. D(O  16,N  14,H  10,C   2)   -107.07 -0.000004    0.33   -106.74   
   447. D(O  16,N  14,H  10,C   1)   -125.26 -0.000002    0.30   -124.96   
   448. D(O  16,N  14,H  10,C   0)   -138.42 -0.000001    0.24   -138.18   
   449. D(O  15,N  14,H  10,O  16)   -122.92  0.000005   -0.12   -123.04   
   450. D(O  15,N  14,H  10,N  11)     65.51  0.000008   -0.07     65.44   
   451. D(O  15,N  14,H  10,H   9)    173.91  0.000003    0.04    173.96   
   452. D(O  15,N  14,H  10,C   5)    128.75  0.000003    0.21    128.96   
   453. D(O  15,N  14,H  10,C   4)    154.23  0.000000    0.16    154.39   
   454. D(O  15,N  14,H  10,C   3)    146.19 -0.000001    0.18    146.37   
   455. D(O  15,N  14,H  10,C   2)    130.01  0.000001    0.21    130.22   
   456. D(O  15,N  14,H  10,C   1)    111.82  0.000003    0.18    112.00   
   457. D(O  15,N  14,H  10,C   0)     98.66  0.000004    0.12     98.79   
   458. D(C   5,N  14,H  10,O  16)    108.33  0.000002   -0.33    108.00   
   459. D(C   5,N  14,H  10,O  15)   -128.75 -0.000003   -0.21   -128.96   
   460. D(C   5,N  14,H  10,N  11)    -63.23  0.000005   -0.28    -63.52   
   461. D(C   5,N  14,H  10,H   9)     45.17  0.000000   -0.17     45.00   
   462. D(C   5,N  14,H  10,H   8)     24.98 -0.000003   -0.06     24.92   
   463. D(C   5,N  14,H  10,C   4)     25.49 -0.000002   -0.06     25.43   
   464. D(O  15,N  14,H  10,H   8)    153.73  0.000000    0.16    153.88   
   465. D(C   5,N  14,H  10,C   3)     17.44 -0.000003   -0.03     17.41   
   466. D(C   5,N  14,H  10,C   2)      1.27 -0.000002   -0.01      1.26   
   467. D(C   5,N  14,H  10,C   1)    -16.92 -0.000000   -0.03    -16.96   
   468. D(C   5,N  14,H  10,C   0)    -30.08  0.000001   -0.09    -30.18   
   469. D(H  10,N  14,C   5,C   4)    -58.81  0.000003    0.25    -58.57   
   470. D(H  10,N  14,C   5,C   0)    121.13  0.000001    0.25    121.38   
   471. D(O  16,N  14,C   5,H  10)     58.36 -0.000001   -0.28     58.09   
   472. D(O  16,N  14,H  10,C   4)    -82.85 -0.000005    0.27    -82.58   
   473. D(O  16,N  14,C   5,C   4)     -0.45  0.000003   -0.03     -0.48   
   474. D(O  16,N  14,C   5,C   0)    179.49 -0.000000   -0.03    179.46   
   475. D(O  15,N  14,C   5,H  10)   -121.55  0.000000   -0.26   -121.81   
   476. D(O  16,N  14,H  10,N  11)   -171.57  0.000003    0.05   -171.52   
   477. D(O  15,N  14,C   5,C   4)    179.64  0.000004   -0.01    179.63   
   478. D(O  15,N  14,C   5,C   0)     -0.42  0.000001   -0.01     -0.43   
   479. D(H  10,O  15,N  14,O  16)    -54.30  0.000002    0.49    -53.80   
   480. D(N  14,O  15,H  10,O  16)     26.96  0.000011   -0.13     26.83   
   481. D(N  14,O  15,H  10,N  11)    -79.52  0.000005    0.17    -79.35   
   482. D(N  14,O  15,H  10,H   9)     -4.28  0.000002    0.03     -4.25   
   483. D(N  14,O  15,H  10,H   8)    -21.01 -0.000000    0.14    -20.87   
   484. D(N  14,O  15,H  10,C   5)    -27.29 -0.000000    0.17    -27.11   
   485. D(N  14,O  15,H  10,C   4)    -17.52 -0.000000    0.12    -17.40   
   486. D(N  14,O  15,H  10,C   3)    -25.62 -0.000001    0.16    -25.46   
   487. D(N  14,O  15,H  10,C   2)    -38.25 -0.000000    0.21    -38.03   
   488. D(H  10,O  15,N  14,C   5)    125.61  0.000001    0.47    126.08   
   489. D(N  14,O  15,H  10,C   1)    -49.89  0.000000    0.24    -49.65   
   490. D(N  14,O  15,H  10,C   0)    -51.96  0.000000    0.24    -51.72   
   491. D(H  10,O  16,N  14,O  15)     81.58  0.000001   -0.39     81.19   
   492. D(H  10,O  16,N  14,C   5)    -98.33  0.000002   -0.37    -98.69   
   493. D(N  14,O  16,H  10,O  15)    -30.39  0.000006   -0.01    -30.40   
   494. D(N  14,O  16,H  10,N  11)      5.57  0.000001    0.03      5.60   
   495. D(N  14,O  16,H  10,H   9)     94.18 -0.000015    0.27     94.44   
   496. D(N  14,O  16,H  10,H   8)     83.15 -0.000011    0.29     83.45   
   497. D(N  14,O  16,H  10,C   5)     40.52 -0.000010    0.21     40.73   
   498. D(N  14,O  16,H  10,C   4)     72.73 -0.000015    0.31     73.03   
   499. D(N  14,O  16,H  10,C   3)     72.50 -0.000013    0.30     72.80   
   500. D(N  14,O  16,H  10,C   2)     58.31 -0.000010    0.28     58.58   
   501. D(N  14,O  16,H  10,C   1)     40.85 -0.000007    0.21     41.06   
   502. D(N  14,O  16,H  10,C   0)     26.99 -0.000005    0.14     27.12   
    ----------------------------------------------------------------------------




    ----------------------------------------------------------------------------
                                   ERROR !!!
       The optimization did not converge but reached the maximum 
       number of optimization cycles.
       As a subsequent Frequencies calculation has been requested
       ORCA will abort at this point of the run.
       Please restart the calculation with the lowest energy geometry and/or
       a larger maxiter for the geometry optimization.
    ----------------------------------------------------------------------------


[file orca_main/run.cpp, line 12331]: ORCA finished with error return - aborting the run
