
                                 *****************
                                 * O   R   C   A *
                                 *****************

                                            #,                                       
                                            ###                                      
                                            ####                                     
                                            #####                                    
                                            ######                                   
                                           ########,                                 
                                     ,,################,,,,,                         
                               ,,#################################,,                 
                          ,,##########################################,,             
                       ,#########################################, ''#####,          
                    ,#############################################,,   '####,        
                  ,##################################################,,,,####,       
                ,###########''''           ''''###############################       
              ,#####''   ,,,,##########,,,,          '''####'''          '####       
            ,##' ,,,,###########################,,,                        '##       
           ' ,,###''''                  '''############,,,                           
         ,,##''                                '''############,,,,        ,,,,,,###''
      ,#''                                            '''#######################'''  
     '                                                          ''''####''''         
             ,#######,   #######,   ,#######,      ##                                
            ,#'     '#,  ##    ##  ,#'     '#,    #''#        ######   ,####,        
            ##       ##  ##   ,#'  ##            #'  '#       #        #'  '#        
            ##       ##  #######   ##           ,######,      #####,   #    #        
            '#,     ,#'  ##    ##  '#,     ,#' ,#      #,         ##   #,  ,#        
             '#######'   ##     ##  '#######'  #'      '#     #####' # '####'        



                  #######################################################
                  #                        -***-                        #
                  #          Department of theory and spectroscopy      #
                  #    Directorship and core code : Frank Neese         #
                  #        Max Planck Institute fuer Kohlenforschung    #
                  #                Kaiser Wilhelm Platz 1               #
                  #                 D-45470 Muelheim/Ruhr               #
                  #                      Germany                        #
                  #                                                     #
                  #                  All rights reserved                #
                  #                        -***-                        #
                  #######################################################



                         Program Version 5.0.4 -  RELEASE  -

 With contributions from (in alphabetic order):
   Daniel Aravena         : Magnetic Suceptibility
   Michael Atanasov       : Ab Initio Ligand Field Theory (pilot matlab implementation)
   Alexander A. Auer      : GIAO ZORA, VPT2 properties, NMR spectrum
   Ute Becker             : Parallelization
   Giovanni Bistoni       : ED, misc. LED, open-shell LED, HFLD
   Martin Brehm           : Molecular dynamics
   Dmytro Bykov           : SCF Hessian
   Vijay G. Chilkuri      : MRCI spin determinant printing, contributions to CSF-ICE
   Dipayan Datta          : RHF DLPNO-CCSD density
   Achintya Kumar Dutta   : EOM-CC, STEOM-CC
   Dmitry Ganyushin       : Spin-Orbit,Spin-Spin,Magnetic field MRCI
   Miquel Garcia          : C-PCM and meta-GGA Hessian, CC/C-PCM, Gaussian charge scheme
   Yang Guo               : DLPNO-NEVPT2, F12-NEVPT2, CIM, IAO-localization
   Andreas Hansen         : Spin unrestricted coupled pair/coupled cluster methods
   Benjamin Helmich-Paris : MC-RPA, TRAH-SCF, COSX integrals
   Lee Huntington         : MR-EOM, pCC
   Robert Izsak           : Overlap fitted RIJCOSX, COSX-SCS-MP3, EOM
   Marcus Kettner         : VPT2
   Christian Kollmar      : KDIIS, OOCD, Brueckner-CCSD(T), CCSD density, CASPT2, CASPT2-K
   Simone Kossmann        : Meta GGA functionals, TD-DFT gradient, OOMP2, MP2 Hessian
   Martin Krupicka        : Initial AUTO-CI
   Lucas Lang             : DCDCAS
   Marvin Lechner         : AUTO-CI (C++ implementation), FIC-MRCC
   Dagmar Lenk            : GEPOL surface, SMD
   Dimitrios Liakos       : Extrapolation schemes; Compound Job, initial MDCI parallelization
   Dimitrios Manganas     : Further ROCIS development; embedding schemes
   Dimitrios Pantazis     : SARC Basis sets
   Anastasios Papadopoulos: AUTO-CI, single reference methods and gradients
   Taras Petrenko         : DFT Hessian,TD-DFT gradient, ASA, ECA, R-Raman, ABS, FL, XAS/XES, NRVS
   Peter Pinski           : DLPNO-MP2, DLPNO-MP2 Gradient
   Christoph Reimann      : Effective Core Potentials
   Marius Retegan         : Local ZFS, SOC
   Christoph Riplinger    : Optimizer, TS searches, QM/MM, DLPNO-CCSD(T), (RO)-DLPNO pert. Triples
   Tobias Risthaus        : Range-separated hybrids, TD-DFT gradient, RPA, STAB
   Michael Roemelt        : Original ROCIS implementation
   Masaaki Saitow         : Open-shell DLPNO-CCSD energy and density
   Barbara Sandhoefer     : DKH picture change effects
   Avijit Sen             : IP-ROCIS
   Kantharuban Sivalingam : CASSCF convergence, NEVPT2, FIC-MRCI
   Bernardo de Souza      : ESD, SOC TD-DFT
   Georgi Stoychev        : AutoAux, RI-MP2 NMR, DLPNO-MP2 response
   Willem Van den Heuvel  : Paramagnetic NMR
   Boris Wezisla          : Elementary symmetry handling
   Frank Wennmohs         : Technical directorship


 We gratefully acknowledge several colleagues who have allowed us to
 interface, adapt or use parts of their codes:
   Stefan Grimme, W. Hujo, H. Kruse, P. Pracht,  : VdW corrections, initial TS optimization,
                  C. Bannwarth, S. Ehlert          DFT functionals, gCP, sTDA/sTD-DF
   Ed Valeev, F. Pavosevic, A. Kumar             : LibInt (2-el integral package), F12 methods
   Garnet Chan, S. Sharma, J. Yang, R. Olivares  : DMRG
   Ulf Ekstrom                                   : XCFun DFT Library
   Mihaly Kallay                                 : mrcc  (arbitrary order and MRCC methods)
   Jiri Pittner, Ondrej Demel                    : Mk-CCSD
   Frank Weinhold                                : gennbo (NPA and NBO analysis)
   Christopher J. Cramer and Donald G. Truhlar   : smd solvation model
   Lars Goerigk                                  : TD-DFT with DH, B97 family of functionals
   V. Asgeirsson, H. Jonsson                     : NEB implementation
   FAccTs GmbH                                   : IRC, NEB, NEB-TS, DLPNO-Multilevel, CI-OPT
                                                   MM, QMMM, 2- and 3-layer-ONIOM, Crystal-QMMM,
                                                   LR-CPCM, SF, NACMEs, symmetry and pop. for TD-DFT,
                                                   nearIR, NL-DFT gradient (VV10), updates on ESD,
                                                   ML-optimized integration grids
   S Lehtola, MJT Oliveira, MAL Marques          : LibXC Library
   Liviu Ungur et al                             : ANISO software


 Your calculation uses the libint2 library for the computation of 2-el integrals
 For citations please refer to: http://libint.valeyev.net

 Your ORCA version has been built with support for libXC version: 5.1.0
 For citations please refer to: https://tddft.org/programs/libxc/

 This ORCA versions uses:
   CBLAS   interface :  Fast vector & matrix operations
   LAPACKE interface :  Fast linear algebra routines
   Shared memory     :  Shared parallel matrices


Your calculation utilizes the atom-pairwise dispersion correction
with the Becke-Johnson damping scheme (D3BJ)
Cite in your paper:
S.Grimme, S.Ehrlich, L.Goerigk, J Comput Chem, (2011), 32, 1456–1465 
S.Grimme, J.Antony, S.Ehrlich and H.Krieg, J.Chem.Phys., 132, (2010), 154104 
   

================================================================================

----- Orbital basis set information -----
Your calculation utilizes the basis: def2-TZVP
   F. Weigend and R. Ahlrichs, Phys. Chem. Chem. Phys. 7, 3297 (2005).

----- AuxJ basis set information -----
Your calculation utilizes the auxiliary basis: def2/J
   F. Weigend, Phys. Chem. Chem. Phys. 8, 1057 (2006).

================================================================================
                                        WARNINGS
                       Please study these warnings very carefully!
================================================================================


WARNING: Geometry Optimization
  ===> : Switching off AutoStart
         For restart on a previous wavefunction, please use MOREAD

INFO   : the flag for use of the SHARK integral package has been found!

================================================================================
                                       INPUT FILE
================================================================================
NAME = e_c_13.inp
|  1> !B3LYP DEF2-TZVP D3BJ OPT FREQ SOSCF
|  2> 
|  3> %geom
|  4> convergence tight
|  5> end
|  6> 
|  7> * xyz 1 1
|  8>   C   -5.68864025007199      0.74375697940424      4.02279963313618
|  9>   C   -6.14017478281601      1.48752803661525      2.89479801700060
| 10>   C   -6.03577510452864      0.96860095727281      1.61512919679120
| 11>   C   -5.47671551789388     -0.31067808542453      1.42174229638733
| 12>   C   -5.02516667533910     -1.06251571606448      2.52737726342718
| 13>   C   -5.13038656319973     -0.54172380422492      3.80827956130628
| 14>   C   -5.80219044545854      1.32185478537185      5.39342595030213
| 15>   H   -5.47568151075062      0.62058386935549      6.17291648473423
| 16>   H   -6.84190537608322      1.63110850063137      5.60405156790145
| 17>   H   -5.19467969317582      2.24286556186927      5.47547721675407
| 18>   H   -6.57338048436388      2.47867051326444      3.05213474531913
| 19>   H   -6.38467649074386      1.54541398407473      0.75588032905486
| 20>   H   -5.39272090817148     -0.72245752042804      0.41310965395308
| 21>   H   -4.59377490734198     -2.05350886881684      2.37011864130417
| 22>   H   -4.78267860356755     -1.12027465846136      4.66726950684610
| 23>   N   -10.72303025727538     -2.04355384202885    -23.95949870294162
| 24>   O   -10.31248685872961     -1.95063071645687    -22.88200324132554
| 25>   O   -10.56999081643787     -2.21775338079966    -25.09257128368711
| 26> **                         ****END OF INPUT****
================================================================================

                       *****************************
                       * Geometry Optimization Run *
                       *****************************

Geometry optimization settings:
Update method            Update   .... BFGS
Choice of coordinates    CoordSys .... Z-matrix Internals
Initial Hessian          InHess   .... Almoef's Model

Convergence Tolerances:
Energy Change            TolE     ....  1.0000e-06 Eh
Max. Gradient            TolMAXG  ....  1.0000e-04 Eh/bohr
RMS Gradient             TolRMSG  ....  3.0000e-05 Eh/bohr
Max. Displacement        TolMAXD  ....  1.0000e-03 bohr
RMS Displacement         TolRMSD  ....  6.0000e-04 bohr
Strict Convergence                ....  False
------------------------------------------------------------------------------
                        ORCA OPTIMIZATION COORDINATE SETUP
------------------------------------------------------------------------------

The optimization will be done in new redundant internal coordinates
Making redundant internal coordinates   ...  (new redundants) done
Evaluating the initial hessian          ...  (Almloef) done
Evaluating the coordinates              ...  done
Calculating the B-matrix                .... done
Calculating the G-matrix                .... done
Diagonalizing the G-matrix              .... done
Small eigenvalue found = 1.893e-02
The first mode is                       ....   54
The number of degrees of freedom        ....   48

    -----------------------------------------------------------------
                    Redundant Internal Coordinates


    -----------------------------------------------------------------
         Definition                    Initial Value    Approx d2E/dq
    -----------------------------------------------------------------
      1. B(C   1,C   0)                  1.4246         0.550233   
      2. B(C   2,C   1)                  1.3848         0.636791   
      3. B(C   3,C   2)                  1.4094         0.581748   
      4. B(C   4,C   3)                  1.4112         0.577909   
      5. B(C   5,C   4)                  1.3867         0.632359   
      6. B(C   5,C   0)                  1.4178         0.564160   
      7. B(C   6,C   0)                  1.4919         0.429729   
      8. B(H   7,C   6)                  1.0982         0.349443   
      9. B(H   8,C   6)                  1.1050         0.340803   
     10. B(H   9,C   6)                  1.1064         0.339078   
     11. B(H  10,C   1)                  1.0931         0.356072   
     12. B(H  11,C   2)                  1.0921         0.357290   
     13. B(H  12,C   3)                  1.0927         0.356568   
     14. B(H  13,C   4)                  1.0922         0.357204   
     15. B(H  14,C   5)                  1.0925         0.356850   
     16. B(O  16,H  12)                 23.8406         0.000000   
     17. B(O  16,H  11)                 24.2157         0.000000   
     18. B(O  16,C   3)                 24.8344         0.000000   
     19. B(O  16,N  15)                  1.1568         1.180523   
     20. B(O  17,N  15)                  1.1566         1.181568   
     21. A(C   1,C   0,C   5)          118.5789         0.417769   
     22. A(C   1,C   0,C   6)          120.0674         0.398126   
     23. A(C   5,C   0,C   6)          121.3532         0.399880   
     24. A(C   0,C   1,H  10)          119.0161         0.345220   
     25. A(C   0,C   1,C   2)          120.8068         0.426905   
     26. A(C   2,C   1,H  10)          120.1770         0.353835   
     27. A(C   3,C   2,H  11)          119.8776         0.348671   
     28. A(C   1,C   2,C   3)          119.7894         0.431191   
     29. A(C   1,C   2,H  11)          120.3330         0.354040   
     30. A(H  12,C   3,O  16)           24.0384         0.089000   
     31. A(C   2,C   3,O  16)           96.7177         0.089000   
     32. A(C   4,C   3,H  12)          119.8561         0.348164   
     33. A(C   4,C   3,O  16)          142.5454         0.089000   
     34. A(C   2,C   3,C   4)          120.1970         0.423759   
     35. A(C   2,C   3,H  12)          119.9469         0.348553   
     36. A(C   5,C   4,H  13)          120.2465         0.353607   
     37. A(C   3,C   4,H  13)          119.7991         0.348268   
     38. A(C   3,C   4,C   5)          119.9544         0.430139   
     39. A(C   4,C   5,H  14)          120.2149         0.353547   
     40. A(C   0,C   5,C   4)          120.6734         0.428285   
     41. A(C   0,C   5,H  14)          119.1116         0.346802   
     42. A(H   8,C   6,H   9)          105.6373         0.285643   
     43. A(H   7,C   6,H   9)          108.4025         0.286761   
     44. A(C   0,C   6,H   9)          110.4210         0.328612   
     45. A(H   7,C   6,H   8)          108.8551         0.286988   
     46. A(C   0,C   6,H   8)          110.8048         0.328888   
     47. A(C   0,C   6,H   7)          112.4600         0.330251   
     48. A(C   2,H  11,O  16)          138.0354         0.089000   
     49. A(C   3,H  12,O  16)          154.8918         0.089000   
     50. A(O  16,N  15,O  17)          151.3630         0.535783   
     51. A(H  11,O  16,N  15)          168.0655         0.089000   
     52. A(C   3,O  16,N  15)          170.3864         0.089000   
     53. A(H  11,O  16,H  12)            5.8941         0.089000   
     54. A(H  12,O  16,N  15)          170.9351         0.089000   
     55. D(C   2,C   1,C   0,C   6)    179.6637         0.020712   
     56. D(H  10,C   1,C   0,C   5)    179.8940         0.020712   
     57. D(H  10,C   1,C   0,C   6)     -0.3762         0.020712   
     58. D(C   2,C   1,C   0,C   5)     -0.0661         0.020712   
     59. D(C   3,C   2,C   1,H  10)   -179.9543         0.028155   
     60. D(H  11,C   2,C   1,C   0)    179.9829         0.028155   
     61. D(C   3,C   2,C   1,C   0)      0.0053         0.028155   
     62. D(H  11,C   2,C   1,H  10)      0.0233         0.028155   
     63. D(O  16,C   3,C   2,H  11)     -6.5287         0.025256   
     64. D(H  12,C   3,C   2,H  11)      0.0474         0.025256   
     65. D(H  12,C   3,C   2,C   1)   -179.9749         0.025256   
     66. D(C   4,C   3,C   2,C   1)      0.0524         0.025256   
     67. D(C   4,C   3,C   2,H  11)   -179.9253         0.025256   
     68. D(O  16,C   3,C   2,C   1)    173.4490         0.025256   
     69. D(C   5,C   4,C   3,C   2)     -0.0481         0.024907   
     70. D(H  13,C   4,C   3,O  16)     10.7734         0.024907   
     71. D(H  13,C   4,C   3,H  12)     -0.0238         0.024907   
     72. D(H  13,C   4,C   3,C   2)    179.9489         0.024907   
     73. D(C   5,C   4,C   3,O  16)   -169.2236         0.024907   
     74. D(C   5,C   4,C   3,H  12)    179.9792         0.024907   
     75. D(H  14,C   5,C   4,H  13)     -0.0298         0.027739   
     76. D(C   0,C   5,C   4,H  13)    179.9887         0.027739   
     77. D(C   0,C   5,C   4,C   3)     -0.0143         0.027739   
     78. D(H  14,C   5,C   0,C   6)      0.3627         0.021814   
     79. D(C   4,C   5,C   0,C   6)   -179.6556         0.021814   
     80. D(H  14,C   5,C   4,C   3)    179.9672         0.027739   
     81. D(C   4,C   5,C   0,C   1)      0.0705         0.021814   
     82. D(H  14,C   5,C   0,C   1)   -179.9112         0.021814   
     83. D(H   8,C   6,C   0,C   1)     54.3622         0.013639   
     84. D(H   7,C   6,C   0,C   5)     -3.8314         0.013639   
     85. D(H   7,C   6,C   0,C   1)    176.4465         0.013639   
     86. D(H   9,C   6,C   0,C   5)    117.3952         0.013639   
     87. D(H   9,C   6,C   0,C   1)    -62.3270         0.013639   
     88. D(H   8,C   6,C   0,C   5)   -125.9157         0.013639   
     89. D(O  16,H  11,C   2,C   3)      9.9732         0.107560   
     90. D(O  16,H  11,C   2,C   1)   -170.0043         0.107560   
     91. D(O  16,H  12,C   3,C   4)    163.7595         0.118591   
     92. D(O  16,H  12,C   3,C   2)    -16.2133         0.118591   
     93. D(H  12,O  16,N  15,O  17)   -160.1457         0.160128   
     94. D(C   3,O  16,N  15,O  17)   -165.8094         0.160128   
     95. D(H  11,O  16,H  12,C   3)     14.0539         0.001500   
     96. D(N  15,O  16,H  12,C   3)    -61.9783         0.001500   
     97. D(H  12,O  16,H  11,C   2)     -8.8352         0.001500   
     98. D(N  15,O  16,H  11,C   2)    123.4879         0.001500   
     99. D(N  15,O  16,C   3,H  12)    123.6105         0.001500   
    100. D(H  11,O  16,N  15,O  17)    171.0448         0.160128   
    101. D(N  15,O  16,C   3,C   4)    100.1043         0.001500   
    102. D(N  15,O  16,C   3,C   2)    -70.4891         0.001500   
    -----------------------------------------------------------------

Number of atoms                         .... 18
Number of degrees of freedom            .... 102

         *************************************************************
         *                GEOMETRY OPTIMIZATION CYCLE   1            *
         *************************************************************
---------------------------------
CARTESIAN COORDINATES (ANGSTROEM)
---------------------------------
  C     -5.688640    0.743757    4.022800
  C     -6.140175    1.487528    2.894798
  C     -6.035775    0.968601    1.615129
  C     -5.476716   -0.310678    1.421742
  C     -5.025167   -1.062516    2.527377
  C     -5.130387   -0.541724    3.808280
  C     -5.802190    1.321855    5.393426
  H     -5.475682    0.620584    6.172916
  H     -6.841905    1.631109    5.604052
  H     -5.194680    2.242866    5.475477
  H     -6.573380    2.478671    3.052135
  H     -6.384676    1.545414    0.755880
  H     -5.392721   -0.722458    0.413110
  H     -4.593775   -2.053509    2.370119
  H     -4.782679   -1.120275    4.667270
  N    -10.723030   -2.043554  -23.959499
  O    -10.312487   -1.950631  -22.882003
  O    -10.569991   -2.217753  -25.092571

----------------------------
CARTESIAN COORDINATES (A.U.)
----------------------------
  NO LB      ZA    FRAG     MASS         X           Y           Z
   0 C     6.0000    0    12.011  -10.749972    1.405497    7.601990
   1 C     6.0000    0    12.011  -11.603249    2.811021    5.470375
   2 C     6.0000    0    12.011  -11.405962    1.830391    3.052152
   3 C     6.0000    0    12.011  -10.349492   -0.587096    2.686704
   4 C     6.0000    0    12.011   -9.496189   -2.007864    4.776051
   5 C     6.0000    0    12.011   -9.695026   -1.023710    7.196605
   6 C     6.0000    0    12.011  -10.964551    2.497944   10.192098
   7 H     1.0000    0     1.008  -10.347538    1.172734   11.665122
   8 H     1.0000    0     1.008  -12.929327    3.082348   10.590123
   9 H     1.0000    0     1.008   -9.816522    4.238402   10.347152
  10 H     1.0000    0     1.008  -12.421889    4.684008    5.767699
  11 H     1.0000    0     1.008  -12.065290    2.920409    1.428407
  12 H     1.0000    0     1.008  -10.190766   -1.365247    0.780664
  13 H     1.0000    0     1.008   -8.680976   -3.880569    4.478875
  14 H     1.0000    0     1.008   -9.037953   -2.117012    8.819861
  15 N     7.0000    0    14.007  -20.263591   -3.861757  -45.276891
  16 O     8.0000    0    15.999  -19.487776   -3.686158  -43.240720
  17 O     8.0000    0    15.999  -19.974388   -4.190947  -47.418088

--------------------------------
INTERNAL COORDINATES (ANGSTROEM)
--------------------------------
 C      0   0   0     0.000000000000     0.00000000     0.00000000
 C      1   0   0     1.424593438778     0.00000000     0.00000000
 C      2   1   0     1.384823777929   120.80682226     0.00000000
 C      3   2   1     1.409432858898   119.78943150     0.00000000
 C      4   3   2     1.411235225042   120.19700263     0.05244663
 C      5   4   3     1.386724968027   119.95436923   359.95191903
 C      1   2   3     1.491880431350   120.06735249   179.66366007
 H      7   1   2     1.098177797701   112.45997699   176.44650361
 H      7   1   2     1.104992374704   110.80476106    54.36215232
 H      7   1   2     1.106373614513   110.42103437   297.67304598
 H      2   1   3     1.093062411278   119.01613765   179.96015196
 H      3   2   1     1.092132804149   120.33298066   179.98294088
 H      4   3   2     1.092683487996   119.94687951   180.02511024
 H      5   4   3     1.092198040893   119.79913350   179.94888148
 H      6   5   4     1.092467684954   120.21490623   179.96716306
 N     13   4   3    24.983625264694   154.69295727   342.92350195
 O     16  13   4     1.156796031787     8.64691898   118.80272079
 O     16  13   4     1.156555239925   159.30403589   146.22675432

---------------------------
INTERNAL COORDINATES (A.U.)
---------------------------
 C      0   0   0     0.000000000000     0.00000000     0.00000000
 C      1   0   0     2.692091451472     0.00000000     0.00000000
 C      2   1   0     2.616937684028   120.80682226     0.00000000
 C      3   2   1     2.663442107466   119.78943150     0.00000000
 C      4   3   2     2.666848085873   120.19700263     0.05244663
 C      5   4   3     2.620530412643   119.95436923   359.95191903
 C      1   2   3     2.819245439808   120.06735249   179.66366007
 H      7   1   2     2.075255284008   112.45997699   176.44650361
 H      7   1   2     2.088132968263   110.80476106    54.36215232
 H      7   1   2     2.090743133226   110.42103437   297.67304598
 H      2   1   3     2.065588604600   119.01613765   179.96015196
 H      3   2   1     2.063831901712   120.33298066   179.98294088
 H      4   3   2     2.064872543369   119.94687951   180.02511024
 H      5   4   3     2.063955181292   119.79913350   179.94888148
 H      6   5   4     2.064464734721   120.21490623   179.96716306
 N     13   4   3    47.212209582788   154.69295727   342.92350195
 O     16  13   4     2.186027692885     8.64691898   118.80272079
 O     16  13   4     2.185572662209   159.30403589   146.22675432

---------------------
BASIS SET INFORMATION
---------------------
There are 4 groups of distinct atoms

 Group   1 Type C   : 11s6p2d1f contracted to 5s3p2d1f pattern {62111/411/11/1}
 Group   2 Type H   : 5s1p contracted to 3s1p pattern {311/1}
 Group   3 Type N   : 11s6p2d1f contracted to 5s3p2d1f pattern {62111/411/11/1}
 Group   4 Type O   : 11s6p2d1f contracted to 5s3p2d1f pattern {62111/411/11/1}

Atom   0C    basis set group =>   1
Atom   1C    basis set group =>   1
Atom   2C    basis set group =>   1
Atom   3C    basis set group =>   1
Atom   4C    basis set group =>   1
Atom   5C    basis set group =>   1
Atom   6C    basis set group =>   1
Atom   7H    basis set group =>   2
Atom   8H    basis set group =>   2
Atom   9H    basis set group =>   2
Atom  10H    basis set group =>   2
Atom  11H    basis set group =>   2
Atom  12H    basis set group =>   2
Atom  13H    basis set group =>   2
Atom  14H    basis set group =>   2
Atom  15N    basis set group =>   3
Atom  16O    basis set group =>   4
Atom  17O    basis set group =>   4
---------------------------------
AUXILIARY/J BASIS SET INFORMATION
---------------------------------
There are 4 groups of distinct atoms

 Group   1 Type C   : 12s5p4d2f1g contracted to 6s4p3d1f1g pattern {711111/2111/211/2/1}
 Group   2 Type H   : 5s2p1d contracted to 3s1p1d pattern {311/2/1}
 Group   3 Type N   : 12s5p4d2f1g contracted to 6s4p3d1f1g pattern {711111/2111/211/2/1}
 Group   4 Type O   : 12s5p4d2f1g contracted to 6s4p3d1f1g pattern {711111/2111/211/2/1}

Atom   0C    basis set group =>   1
Atom   1C    basis set group =>   1
Atom   2C    basis set group =>   1
Atom   3C    basis set group =>   1
Atom   4C    basis set group =>   1
Atom   5C    basis set group =>   1
Atom   6C    basis set group =>   1
Atom   7H    basis set group =>   2
Atom   8H    basis set group =>   2
Atom   9H    basis set group =>   2
Atom  10H    basis set group =>   2
Atom  11H    basis set group =>   2
Atom  12H    basis set group =>   2
Atom  13H    basis set group =>   2
Atom  14H    basis set group =>   2
Atom  15N    basis set group =>   3
Atom  16O    basis set group =>   4
Atom  17O    basis set group =>   4
------------------------------------------------------------------------------
                           ORCA GTO INTEGRAL CALCULATION
                           -- RI-GTO INTEGRALS CHOSEN --
------------------------------------------------------------------------------
------------------------------------------------------------------------------
                   ___                                                        
                  /   \      - P O W E R E D   B Y -                         
                 /     \                                                     
                 |  |  |   _    _      __       _____    __    __             
                 |  |  |  | |  | |    /  \     |  _  \  |  |  /  |          
                  \  \/   | |  | |   /    \    | | | |  |  | /  /          
                 / \  \   | |__| |  /  /\  \   | |_| |  |  |/  /          
                |  |  |   |  __  | /  /__\  \  |    /   |      \           
                |  |  |   | |  | | |   __   |  |    \   |  |\   \          
                \     /   | |  | | |  |  |  |  | |\  \  |  | \   \       
                 \___/    |_|  |_| |__|  |__|  |_| \__\ |__|  \__/        
                                                                              
                      - O R C A' S   B I G   F R I E N D -                    
                                      &                                       
                       - I N T E G R A L  F E E D E R -                       
                                                                              
 v1 FN, 2020, v2 2021                                                         
------------------------------------------------------------------------------


Reading SHARK input file e_c_13.SHARKINP.tmp ... ok
----------------------
SHARK INTEGRAL PACKAGE
----------------------

Number of atoms                             ...     18
Number of basis functions                   ...    358
Number of shells                            ...    142
Maximum angular momentum                    ...      3
Integral batch strategy                     ... SHARK/LIBINT Hybrid
RI-J (if used) integral strategy            ... SPLIT-RIJ (Revised 2003 algorithm where possible)
Printlevel                                  ...      1
Contraction scheme used                     ... SEGMENTED contraction
Coulomb Range Separation                    ... NOT USED
Exchange Range Separation                   ... NOT USED
Finite Nucleus Model                        ... NOT USED
Auxiliary Coulomb fitting basis             ... AVAILABLE
   # of basis functions in Aux-J            ...    578
   # of shells in Aux-J                     ...    190
   Maximum angular momentum in Aux-J        ...      4
Auxiliary J/K fitting basis                 ... NOT available
Auxiliary Correlation fitting basis         ... NOT available
Auxiliary 'external' fitting basis          ... NOT available
Integral threshold                          ...     2.500000e-11
Primitive cut-off                           ...     2.500000e-12
Primitive pair pre-selection threshold      ...     2.500000e-12

Calculating pre-screening integrals         ... done (  0.3 sec) Dimension = 142
Organizing shell pair data                  ... done (  0.3 sec)
Shell pair information
Total number of shell pairs                 ...     10153
Shell pairs after pre-screening             ...      6190
Total number of primitive shell pairs       ...     31120
Primitive shell pairs kept                  ...     14656
          la=0 lb=0:   1708 shell pairs
          la=1 lb=0:   1739 shell pairs
          la=1 lb=1:    462 shell pairs
          la=2 lb=0:    885 shell pairs
          la=2 lb=1:    451 shell pairs
          la=2 lb=2:    125 shell pairs
          la=3 lb=0:    441 shell pairs
          la=3 lb=1:    229 shell pairs
          la=3 lb=2:    116 shell pairs
          la=3 lb=3:     34 shell pairs

Calculating one electron integrals          ... done (  0.1 sec)
Calculating RI/J V-Matrix + Cholesky decomp.... done (  0.0 sec)
Calculating Nuclear repulsion               ... done (  0.0 sec) ENN=    356.187175865595 Eh

SHARK setup successfully completed in   1.4 seconds

Maximum memory used throughout the entire GTOINT-calculation: 91.8 MB
-------------------------------------------------------------------------------
                                 ORCA SCF
-------------------------------------------------------------------------------

------------
SCF SETTINGS
------------
Hamiltonian:
 Density Functional     Method          .... DFT(GTOs)
 Exchange Functional    Exchange        .... B88
   X-Alpha parameter    XAlpha          ....  0.666667
   Becke's b parameter  XBeta           ....  0.004200
 Correlation Functional Correlation     .... LYP
 LDA part of GGA corr.  LDAOpt          .... VWN-5
 Gradients option       PostSCFGGA      .... off
 Hybrid DFT is turned on
   Fraction HF Exchange ScalHFX         ....  0.200000
   Scaling of DF-GGA-X  ScalDFX         ....  0.720000
   Scaling of DF-GGA-C  ScalDFC         ....  0.810000
   Scaling of DF-LDA-C  ScalLDAC        ....  1.000000
   Perturbative correction              ....  0.000000
   Density functional embedding theory  .... OFF
   NL short-range parameter             ....  4.800000
 RI-approximation to the Coulomb term is turned on
   Number of AuxJ basis functions       .... 578
   RIJ-COSX (HFX calculated with COS-X)).... on


General Settings:
 Integral files         IntName         .... e_c_13
 Hartree-Fock type      HFTyp           .... RHF
 Total Charge           Charge          ....    1
 Multiplicity           Mult            ....    1
 Number of Electrons    NEL             ....   72
 Basis Dimension        Dim             ....  358
 Nuclear Repulsion      ENuc            ....    356.1871758656 Eh

Convergence Acceleration:
 DIIS                   CNVDIIS         .... on
   Start iteration      DIISMaxIt       ....    12
   Startup error        DIISStart       ....  0.200000
   # of expansion vecs  DIISMaxEq       ....     5
   Bias factor          DIISBfac        ....   1.050
   Max. coefficient     DIISMaxC        ....  10.000
 Trust-Rad. Augm. Hess. CNVTRAH         .... auto
   Auto Start mean grad. ratio tolernc. ....  1.125000
   Auto Start start iteration           ....    20
   Auto Start num. interpolation iter.  ....    10
   Max. Number of Micro iterations      ....    16
   Max. Number of Macro iterations      .... Maxiter - #DIIS iter
   Number of Davidson start vectors     ....     2
   Converg. threshold I  (grad. norm)   ....   1.000e-05
   Converg. threshold II (energy diff.) ....   1.000e-08
   Grad. Scal. Fac. for Micro threshold ....   0.100
   Minimum threshold for Micro iter.    ....   0.010
   NR start threshold (gradient norm)   ....   0.001
   Initial trust radius                 ....   0.400
   Minimum AH scaling param. (alpha)    ....   1.000
   Maximum AH scaling param. (alpha)    .... 1000.000
   Orbital update algorithm             .... Taylor
   White noise on init. David. guess    .... on
   Maximum white noise                  ....   0.010
   Quad. conv. algorithm                .... NR
 SOSCF                  CNVSOSCF        .... on
   Start iteration      SOSCFMaxIt      ....   150
   Startup grad/error   SOSCFStart      ....  0.003300
 Level Shifting         CNVShift        .... on
   Level shift para.    LevelShift      ....    0.2500
   Turn off err/grad.   ShiftErr        ....    0.0010
 Zerner damping         CNVZerner       .... off
 Static damping         CNVDamp         .... on
   Fraction old density DampFac         ....    0.7000
   Max. Damping (<1)    DampMax         ....    0.9800
   Min. Damping (>=0)   DampMin         ....    0.0000
   Turn off err/grad.   DampErr         ....    0.1000
 Fernandez-Rico         CNVRico         .... off

SCF Procedure:
 Maximum # iterations   MaxIter         ....   125
 SCF integral mode      SCFMode         .... Direct
   Integral package                     .... SHARK and LIBINT hybrid scheme
 Reset frequency        DirectResetFreq ....    20
 Integral Threshold     Thresh          ....  2.500e-11 Eh
 Primitive CutOff       TCut            ....  2.500e-12 Eh

Convergence Tolerance:
 Convergence Check Mode ConvCheckMode   .... Total+1el-Energy
 Convergence forced     ConvForced      .... 0
 Energy Change          TolE            ....  1.000e-08 Eh
 1-El. energy change                    ....  1.000e-05 Eh
 Orbital Gradient       TolG            ....  1.000e-05
 Orbital Rotation angle TolX            ....  1.000e-05
 DIIS Error             TolErr          ....  5.000e-07


Diagonalization of the overlap matrix:
Smallest eigenvalue                        ... 9.612e-06
Time for diagonalization                   ...    0.030 sec
Threshold for overlap eigenvalues          ... 1.000e-08
Number of eigenvalues below threshold      ... 0
Time for construction of square roots      ...    0.020 sec
Total time needed                          ...    0.051 sec

Time for model grid setup =    0.621 sec

------------------------------
INITIAL GUESS: MODEL POTENTIAL
------------------------------
Loading Hartree-Fock densities                     ... done
Calculating cut-offs                               ... done
Initializing the effective Hamiltonian             ... done
Setting up the integral package (SHARK)            ... done
Starting the Coulomb interaction                   ... done (   1.2 sec)
Reading the grid                                   ... done
Mapping shells                                     ... done
Starting the XC term evaluation                    ... done (   1.0 sec)
  promolecular density results
     # of electrons  =     72.993498998
     EX              =    -61.286184863
     EC              =     -2.469390309
     EX+EC           =    -63.755575172
Transforming the Hamiltonian                       ... done (   0.0 sec)
Diagonalizing the Hamiltonian                      ... done (   0.0 sec)
Back transforming the eigenvectors                 ... done (   0.0 sec)
Now organizing SCF variables                       ... done
                      ------------------
                      INITIAL GUESS DONE (   3.0 sec)
                      ------------------
-------------------
DFT GRID GENERATION
-------------------

General Integration Accuracy     IntAcc      ... 4.388
Radial Grid Type                 RadialGrid  ... OptM3 with GC (2021)
Angular Grid (max. ang.)         AngularGrid ... 4 (Lebedev-302)
Angular grid pruning method      GridPruning ... 4 (adaptive)
Weight generation scheme         WeightScheme... Becke
Basis function cutoff            BFCut       ... 1.0000e-11
Integration weight cutoff        WCut        ... 1.0000e-14
Angular grids for H and He will be reduced by one unit
Partially contracted basis set               ... off
Rotationally invariant grid construction     ... off

Total number of grid points                  ...    86305
Total number of batches                      ...     1356
Average number of points per batch           ...       63
Average number of grid points per atom       ...     4795
Time for grid setup =    3.028 sec

--------------------
COSX GRID GENERATION
--------------------

GRIDX 1
-------
General Integration Accuracy     IntAcc      ... 3.816
Radial Grid Type                 RadialGrid  ... OptM3 with GC (2021)
Angular Grid (max. ang.)         AngularGrid ... 1 (Lebedev-50)
Angular grid pruning method      GridPruning ... 4 (adaptive)
Weight generation scheme         WeightScheme... Becke
Basis function cutoff            BFCut       ... 1.0000e-11
Integration weight cutoff        WCut        ... 1.0000e-14
Angular grids for H and He will be reduced by one unit
Partially contracted basis set               ... on
Rotationally invariant grid construction     ... off

Total number of grid points                  ...    11047
Total number of batches                      ...      179
Average number of points per batch           ...       61
Average number of grid points per atom       ...      614
UseSFitting                                  ... on

GRIDX 2
-------
General Integration Accuracy     IntAcc      ... 4.020
Radial Grid Type                 RadialGrid  ... OptM3 with GC (2021)
Angular Grid (max. ang.)         AngularGrid ... 2 (Lebedev-110)
Angular grid pruning method      GridPruning ... 4 (adaptive)
Weight generation scheme         WeightScheme... Becke
Basis function cutoff            BFCut       ... 1.0000e-11
Integration weight cutoff        WCut        ... 1.0000e-14
Angular grids for H and He will be reduced by one unit
Partially contracted basis set               ... on
Rotationally invariant grid construction     ... off

Total number of grid points                  ...    24415
Total number of batches                      ...      390
Average number of points per batch           ...       62
Average number of grid points per atom       ...     1356
UseSFitting                                  ... on

GRIDX 3
-------
General Integration Accuracy     IntAcc      ... 4.338
Radial Grid Type                 RadialGrid  ... OptM3 with GC (2021)
Angular Grid (max. ang.)         AngularGrid ... 3 (Lebedev-194)
Angular grid pruning method      GridPruning ... 4 (adaptive)
Weight generation scheme         WeightScheme... Becke
Basis function cutoff            BFCut       ... 1.0000e-11
Integration weight cutoff        WCut        ... 1.0000e-14
Angular grids for H and He will be reduced by one unit
Partially contracted basis set               ... on
Rotationally invariant grid construction     ... off

Total number of grid points                  ...    53760
Total number of batches                      ...      850
Average number of points per batch           ...       63
Average number of grid points per atom       ...     2987
UseSFitting                                  ... on

Time for X-Grid setup             =    4.007 sec

--------------
SCF ITERATIONS
--------------
ITER       Energy         Delta-E        Max-DP      RMS-DP      [F,P]     Damp
               ***  Starting incremental Fock matrix formation  ***
  0   -475.8635890462   0.000000000000 0.16875480  0.00189180  0.2014985 0.7000
  1   -475.8879141021  -0.024325055893 0.04320627  0.00072292  0.1349962 0.7000
                               ***Turning on DIIS***
  2   -476.0711879344  -0.183273832239 0.09421842  0.00155780  0.0336373 0.0000
  3   -476.1120697999  -0.040881865487 0.00447708  0.00009692  0.1327762 0.7000
  4   -476.1252081031  -0.013138303185 0.00469521  0.00010695  0.1170800 0.7000
  5   -476.1372936409  -0.012085537836 0.00486056  0.00011950  0.1018268 0.7000
  6   -476.1482299567  -0.010936315777 0.01974540  0.00049217  0.0865651 0.0000
  7   -476.1779400582  -0.029710101553 0.01448673  0.00031807  0.0307600 0.0000
  8   -476.1819455160  -0.004005457763 0.00641233  0.00013149  0.0082066 0.0000
  9   -476.1821066696  -0.000161153634 0.00259467  0.00005368  0.0064066 0.0000
                      *** Initiating the SOSCF procedure ***
                           *** Shutting down DIIS ***
                      *** Re-Reading the Fockian *** 
                      *** Removing any level shift *** 
ITER      Energy       Delta-E        Grad      Rot      Max-DP    RMS-DP
 10   -476.18216928  -0.0000626150  0.000280  0.000280  0.001064  0.000022
               *** Restarting incremental Fock matrix formation ***
 11   -476.18216743   0.0000018588  0.000585  0.002008  0.001214  0.000019
 12   -476.18214829   0.0000191343  0.002480  0.001660  0.000968  0.000010
 13   -476.18216876  -0.0000204727  0.000027  0.000110  0.000049  0.000001
 14   -476.18216872   0.0000000426  0.000054  0.000080  0.000035  0.000001
 15   -476.18216878  -0.0000000584  0.000005  0.000008  0.000011  0.000000
 16   -476.18216879  -0.0000000060  0.000008  0.000006  0.000012  0.000000
                  ***Gradient check signals convergence***
              ***Rediagonalizing the Fockian in SOSCF/NRSCF***

               *****************************************************
               *                     SUCCESS                       *
               *           SCF CONVERGED AFTER  17 CYCLES          *
               *****************************************************

Old exchange energy                            =    -12.307423651 Eh
New exchange energy                            =    -12.307402865 Eh
Exchange energy change after final integration =      0.000020786 Eh
Total energy after final integration           =   -476.182147985 Eh
Final COS-X integration done in                =    34.342 sec

----------------
TOTAL SCF ENERGY
----------------

Total Energy       :         -476.18214799 Eh          -12957.57500 eV

Components:
Nuclear Repulsion  :          356.18717587 Eh            9692.34580 eV
Electronic Energy  :         -832.36932385 Eh          -22649.92080 eV
One Electron Energy:        -1340.63970062 Eh          -36480.66089 eV
Two Electron Energy:          508.27037677 Eh           13830.74009 eV
Max COSX asymmetry :            0.00000160 Eh               0.00004 eV

Virial components:
Potential Energy   :         -949.84625687 Eh          -25846.63067 eV
Kinetic Energy     :          473.66410889 Eh           12889.05567 eV
Virial Ratio       :            2.00531609


DFT components:
N(Alpha)           :       36.000004307852 electrons
N(Beta)            :       36.000004307852 electrons
N(Total)           :       72.000008615703 electrons
E(X)               :      -49.048529314815 Eh       
E(C)               :       -2.881415210614 Eh       
E(XC)              :      -51.929944525429 Eh       
DFET-embed. en.    :        0.000000000000 Eh       

---------------
SCF CONVERGENCE
---------------

  Last Energy change         ...    1.4775e-08  Tolerance :   1.0000e-08
  Last MAX-Density change    ...    2.3315e-15  Tolerance :   1.0000e-07
  Last RMS-Density change    ...    1.6179e-17  Tolerance :   5.0000e-09
  Last Orbital Gradient      ...    2.1902e-06  Tolerance :   1.0000e-05
  Last Orbital Rotation      ...    3.1360e-06  Tolerance :   1.0000e-05

             **** THE GBW FILE WAS UPDATED (e_c_13.gbw) ****
             **** DENSITY e_c_13.scfp WAS UPDATED ****
             **** ENERGY FILE WAS UPDATED (e_c_13.en.tmp) ****
             **** THE GBW FILE WAS UPDATED (e_c_13.gbw) ****
             **** DENSITY e_c_13.scfp WAS UPDATED ****
----------------
ORBITAL ENERGIES
----------------

  NO   OCC          E(Eh)            E(eV) 
   0   2.0000     -19.656277      -534.8745 
   1   2.0000     -19.656210      -534.8727 
   2   2.0000     -14.984519      -407.7495 
   3   2.0000     -10.204007      -277.6651 
   4   2.0000     -10.193490      -277.3790 
   5   2.0000     -10.193123      -277.3690 
   6   2.0000     -10.192373      -277.3486 
   7   2.0000     -10.190945      -277.3097 
   8   2.0000     -10.190582      -277.2998 
   9   2.0000     -10.186938      -277.2007 
  10   2.0000      -1.687644       -45.9231 
  11   2.0000      -1.564701       -42.5777 
  12   2.0000      -1.020382       -27.7660 
  13   2.0000      -0.959438       -26.1076 
  14   2.0000      -0.957602       -26.0577 
  15   2.0000      -0.939297       -25.5596 
  16   2.0000      -0.869050       -23.6481 
  17   2.0000      -0.786322       -21.3969 
  18   2.0000      -0.762662       -20.7531 
  19   2.0000      -0.754426       -20.5290 
  20   2.0000      -0.749592       -20.3974 
  21   2.0000      -0.698628       -19.0106 
  22   2.0000      -0.618529       -16.8310 
  23   2.0000      -0.600015       -16.3272 
  24   2.0000      -0.525747       -14.3063 
  25   2.0000      -0.477517       -12.9939 
  26   2.0000      -0.472369       -12.8538 
  27   2.0000      -0.439667       -11.9639 
  28   2.0000      -0.436131       -11.8677 
  29   2.0000      -0.422388       -11.4938 
  30   2.0000      -0.403653       -10.9840 
  31   2.0000      -0.371145       -10.0994 
  32   2.0000      -0.363278        -9.8853 
  33   2.0000      -0.355104        -9.6629 
  34   2.0000      -0.274527        -7.4703 
  35   2.0000      -0.257122        -6.9967 
  36   0.0000      -0.498969       -13.5776 
  37   0.0000      -0.434890       -11.8339 
  38   0.0000      -0.208842        -5.6829 
  39   0.0000      -0.046787        -1.2731 
  40   0.0000      -0.033570        -0.9135 
  41   0.0000      -0.027275        -0.7422 
  42   0.0000      -0.011751        -0.3198 
  43   0.0000       0.011449         0.3115 
  44   0.0000       0.013897         0.3782 
  45   0.0000       0.026010         0.7078 
  46   0.0000       0.039966         1.0875 
  47   0.0000       0.055596         1.5128 
  48   0.0000       0.075546         2.0557 
  49   0.0000       0.086341         2.3495 
  50   0.0000       0.089702         2.4409 
  51   0.0000       0.096447         2.6245 
  52   0.0000       0.113429         3.0866 
  53   0.0000       0.122775         3.3409 
  54   0.0000       0.124805         3.3961 
  55   0.0000       0.135331         3.6825 
  56   0.0000       0.139451         3.7946 
  57   0.0000       0.143015         3.8916 
  58   0.0000       0.168897         4.5959 
  59   0.0000       0.176784         4.8105 
  60   0.0000       0.177122         4.8197 
  61   0.0000       0.206001         5.6056 
  62   0.0000       0.209666         5.7053 
  63   0.0000       0.209986         5.7140 
  64   0.0000       0.211589         5.7576 
  65   0.0000       0.219072         5.9613 
  66   0.0000       0.237269         6.4564 
  67   0.0000       0.239592         6.5196 
  68   0.0000       0.250228         6.8090 
  69   0.0000       0.253293         6.8924 
  70   0.0000       0.266629         7.2554 
  71   0.0000       0.273459         7.4412 
  72   0.0000       0.281582         7.6622 
  73   0.0000       0.294088         8.0025 
  74   0.0000       0.296153         8.0587 
  75   0.0000       0.305966         8.3258 
  76   0.0000       0.330563         8.9951 
  77   0.0000       0.332408         9.0453 
  78   0.0000       0.336619         9.1599 
  79   0.0000       0.339693         9.2435 
  80   0.0000       0.352282         9.5861 
  81   0.0000       0.386949        10.5294 
  82   0.0000       0.392377        10.6771 
  83   0.0000       0.399443        10.8694 
  84   0.0000       0.401434        10.9236 
  85   0.0000       0.407297        11.0831 
  86   0.0000       0.425187        11.5699 
  87   0.0000       0.433256        11.7895 
  88   0.0000       0.442696        12.0464 
  89   0.0000       0.453065        12.3285 
  90   0.0000       0.473052        12.8724 
  91   0.0000       0.476313        12.9611 
  92   0.0000       0.477521        12.9940 
  93   0.0000       0.479221        13.0403 
  94   0.0000       0.492279        13.3956 
  95   0.0000       0.498925        13.5764 
  96   0.0000       0.529194        14.4001 
  97   0.0000       0.537125        14.6159 
  98   0.0000       0.541743        14.7416 
  99   0.0000       0.596656        16.2358 
 100   0.0000       0.600495        16.3403 
 101   0.0000       0.609608        16.5883 
 102   0.0000       0.625798        17.0288 
 103   0.0000       0.631819        17.1927 
 104   0.0000       0.644464        17.5368 
 105   0.0000       0.652744        17.7621 
 106   0.0000       0.676450        18.4072 
 107   0.0000       0.695981        18.9386 
 108   0.0000       0.724830        19.7236 
 109   0.0000       0.735031        20.0012 
 110   0.0000       0.757019        20.5995 
 111   0.0000       0.757555        20.6141 
 112   0.0000       0.795014        21.6334 
 113   0.0000       0.797615        21.7042 
 114   0.0000       0.814756        22.1706 
 115   0.0000       0.821305        22.3488 
 116   0.0000       0.858001        23.3474 
 117   0.0000       0.870954        23.6999 
 118   0.0000       0.907607        24.6972 
 119   0.0000       0.910281        24.7700 
 120   0.0000       0.915411        24.9096 
 121   0.0000       0.940425        25.5903 
 122   0.0000       0.979674        26.6583 
 123   0.0000       0.980783        26.6885 
 124   0.0000       0.994957        27.0741 
 125   0.0000       1.036803        28.2128 
 126   0.0000       1.063995        28.9528 
 127   0.0000       1.070882        29.1402 
 128   0.0000       1.077528        29.3210 
 129   0.0000       1.082171        29.4474 
 130   0.0000       1.099129        29.9088 
 131   0.0000       1.107250        30.1298 
 132   0.0000       1.172509        31.9056 
 133   0.0000       1.177118        32.0310 
 134   0.0000       1.183442        32.2031 
 135   0.0000       1.194507        32.5042 
 136   0.0000       1.206063        32.8186 
 137   0.0000       1.220375        33.2081 
 138   0.0000       1.227128        33.3918 
 139   0.0000       1.238638        33.7051 
 140   0.0000       1.264588        34.4112 
 141   0.0000       1.277963        34.7751 
 142   0.0000       1.280990        34.8575 
 143   0.0000       1.290655        35.1205 
 144   0.0000       1.303177        35.4613 
 145   0.0000       1.356763        36.9194 
 146   0.0000       1.387760        37.7629 
 147   0.0000       1.418113        38.5888 
 148   0.0000       1.433893        39.0182 
 149   0.0000       1.442496        39.2523 
 150   0.0000       1.458576        39.6899 
 151   0.0000       1.471334        40.0370 
 152   0.0000       1.474972        40.1360 
 153   0.0000       1.484776        40.4028 
 154   0.0000       1.502595        40.8877 
 155   0.0000       1.519520        41.3483 
 156   0.0000       1.526483        41.5377 
 157   0.0000       1.533729        41.7349 
 158   0.0000       1.545895        42.0659 
 159   0.0000       1.581481        43.0343 
 160   0.0000       1.582467        43.0611 
 161   0.0000       1.589452        43.2512 
 162   0.0000       1.615446        43.9585 
 163   0.0000       1.640837        44.6494 
 164   0.0000       1.644251        44.7423 
 165   0.0000       1.646564        44.8053 
 166   0.0000       1.668717        45.4081 
 167   0.0000       1.674812        45.5739 
 168   0.0000       1.686998        45.9055 
 169   0.0000       1.702380        46.3241 
 170   0.0000       1.705047        46.3967 
 171   0.0000       1.715579        46.6833 
 172   0.0000       1.769832        48.1596 
 173   0.0000       1.806325        49.1526 
 174   0.0000       1.820280        49.5323 
 175   0.0000       1.832268        49.8585 
 176   0.0000       1.835542        49.9476 
 177   0.0000       1.872143        50.9436 
 178   0.0000       1.923973        52.3540 
 179   0.0000       1.934110        52.6298 
 180   0.0000       1.969388        53.5898 
 181   0.0000       1.983092        53.9627 
 182   0.0000       2.020935        54.9924 
 183   0.0000       2.031987        55.2932 
 184   0.0000       2.036603        55.4188 
 185   0.0000       2.037928        55.4548 
 186   0.0000       2.052087        55.8401 
 187   0.0000       2.063520        56.1512 
 188   0.0000       2.107045        57.3356 
 189   0.0000       2.119134        57.6646 
 190   0.0000       2.126754        57.8719 
 191   0.0000       2.182908        59.4000 
 192   0.0000       2.201356        59.9019 
 193   0.0000       2.213387        60.2293 
 194   0.0000       2.230659        60.6993 
 195   0.0000       2.252357        61.2898 
 196   0.0000       2.289613        62.3035 
 197   0.0000       2.309743        62.8513 
 198   0.0000       2.342801        63.7509 
 199   0.0000       2.373099        64.5753 
 200   0.0000       2.438304        66.3496 
 201   0.0000       2.454957        66.8028 
 202   0.0000       2.479145        67.4610 
 203   0.0000       2.487247        67.6814 
 204   0.0000       2.493593        67.8541 
 205   0.0000       2.500534        68.0430 
 206   0.0000       2.502094        68.0854 
 207   0.0000       2.510912        68.3254 
 208   0.0000       2.511429        68.3395 
 209   0.0000       2.527223        68.7692 
 210   0.0000       2.570952        69.9592 
 211   0.0000       2.578390        70.1615 
 212   0.0000       2.583450        70.2993 
 213   0.0000       2.615838        71.1806 
 214   0.0000       2.635066        71.7038 
 215   0.0000       2.649437        72.0948 
 216   0.0000       2.654941        72.2446 
 217   0.0000       2.660641        72.3997 
 218   0.0000       2.664183        72.4961 
 219   0.0000       2.685640        73.0800 
 220   0.0000       2.708443        73.7005 
 221   0.0000       2.709083        73.7179 
 222   0.0000       2.745998        74.7224 
 223   0.0000       2.747705        74.7689 
 224   0.0000       2.755495        74.9808 
 225   0.0000       2.760883        75.1274 
 226   0.0000       2.793772        76.0224 
 227   0.0000       2.804587        76.3167 
 228   0.0000       2.808704        76.4287 
 229   0.0000       2.823988        76.8446 
 230   0.0000       2.870523        78.1109 
 231   0.0000       2.875827        78.2552 
 232   0.0000       2.926265        79.6277 
 233   0.0000       2.957142        80.4679 
 234   0.0000       2.970822        80.8402 
 235   0.0000       2.990849        81.3851 
 236   0.0000       3.005026        81.7709 
 237   0.0000       3.010486        81.9195 
 238   0.0000       3.073291        83.6285 
 239   0.0000       3.081434        83.8501 
 240   0.0000       3.088259        84.0358 
 241   0.0000       3.107381        84.5561 
 242   0.0000       3.120840        84.9224 
 243   0.0000       3.141819        85.4932 
 244   0.0000       3.153363        85.8074 
 245   0.0000       3.165638        86.1414 
 246   0.0000       3.193450        86.8982 
 247   0.0000       3.196220        86.9736 
 248   0.0000       3.212420        87.4144 
 249   0.0000       3.220409        87.6318 
 250   0.0000       3.248706        88.4018 
 251   0.0000       3.271268        89.0157 
 252   0.0000       3.285384        89.3998 
 253   0.0000       3.297970        89.7423 
 254   0.0000       3.320665        90.3599 
 255   0.0000       3.321875        90.3928 
 256   0.0000       3.323627        90.4405 
 257   0.0000       3.331501        90.6547 
 258   0.0000       3.348501        91.1173 
 259   0.0000       3.360010        91.4305 
 260   0.0000       3.360936        91.4557 
 261   0.0000       3.374115        91.8143 
 262   0.0000       3.379252        91.9541 
 263   0.0000       3.420026        93.0636 
 264   0.0000       3.442510        93.6755 
 265   0.0000       3.444110        93.7190 
 266   0.0000       3.462536        94.2204 
 267   0.0000       3.470719        94.4431 
 268   0.0000       3.519159        95.7612 
 269   0.0000       3.528294        96.0098 
 270   0.0000       3.574802        97.2753 
 271   0.0000       3.584159        97.5299 
 272   0.0000       3.654811        99.4525 
 273   0.0000       3.657742        99.5322 
 274   0.0000       3.669737        99.8586 
 275   0.0000       3.707608       100.8891 
 276   0.0000       3.736323       101.6705 
 277   0.0000       3.748631       102.0054 
 278   0.0000       3.789867       103.1275 
 279   0.0000       3.830438       104.2315 
 280   0.0000       3.831523       104.2610 
 281   0.0000       3.853913       104.8703 
 282   0.0000       3.857558       104.9695 
 283   0.0000       3.859400       105.0196 
 284   0.0000       3.870109       105.3110 
 285   0.0000       3.873690       105.4085 
 286   0.0000       3.918176       106.6190 
 287   0.0000       3.967465       107.9602 
 288   0.0000       3.990001       108.5734 
 289   0.0000       4.014760       109.2472 
 290   0.0000       4.047311       110.1329 
 291   0.0000       4.071541       110.7923 
 292   0.0000       4.080272       111.0298 
 293   0.0000       4.102425       111.6327 
 294   0.0000       4.145036       112.7922 
 295   0.0000       4.150330       112.9362 
 296   0.0000       4.179258       113.7234 
 297   0.0000       4.185295       113.8877 
 298   0.0000       4.206536       114.4657 
 299   0.0000       4.212422       114.6258 
 300   0.0000       4.230592       115.1203 
 301   0.0000       4.242794       115.4523 
 302   0.0000       4.275203       116.3342 
 303   0.0000       4.304549       117.1327 
 304   0.0000       4.393175       119.5444 
 305   0.0000       4.408007       119.9480 
 306   0.0000       4.441006       120.8459 
 307   0.0000       4.497416       122.3809 
 308   0.0000       4.556823       123.9975 
 309   0.0000       4.621536       125.7584 
 310   0.0000       4.626816       125.9021 
 311   0.0000       4.642866       126.3388 
 312   0.0000       4.665438       126.9530 
 313   0.0000       4.677948       127.2934 
 314   0.0000       4.679291       127.3300 
 315   0.0000       4.679691       127.3409 
 316   0.0000       4.718344       128.3927 
 317   0.0000       4.721785       128.4863 
 318   0.0000       4.811818       130.9362 
 319   0.0000       4.841071       131.7322 
 320   0.0000       4.929414       134.1362 
 321   0.0000       4.960854       134.9917 
 322   0.0000       4.978053       135.4597 
 323   0.0000       5.015773       136.4861 
 324   0.0000       5.145694       140.0214 
 325   0.0000       5.164589       140.5356 
 326   0.0000       5.267113       143.3254 
 327   0.0000       5.307768       144.4317 
 328   0.0000       5.358989       145.8255 
 329   0.0000       5.367305       146.0518 
 330   0.0000       5.412417       147.2794 
 331   0.0000       5.614878       152.7886 
 332   0.0000       5.732773       155.9967 
 333   0.0000       5.784869       157.4143 
 334   0.0000       5.825861       158.5297 
 335   0.0000       5.829439       158.6271 
 336   0.0000       5.858114       159.4074 
 337   0.0000       5.913940       160.9265 
 338   0.0000       6.117896       166.4764 
 339   0.0000       6.120427       166.5453 
 340   0.0000       6.154898       167.4833 
 341   0.0000       6.468619       176.0201 
 342   0.0000       6.601601       179.6387 
 343   0.0000       6.652791       181.0317 
 344   0.0000       6.898297       187.7122 
 345   0.0000       6.900639       187.7759 
 346   0.0000       7.251875       197.3335 
 347   0.0000       7.440696       202.4716 
 348   0.0000      21.890306       595.6655 
 349   0.0000      22.345798       608.0601 
 350   0.0000      22.503273       612.3452 
 351   0.0000      22.518074       612.7479 
 352   0.0000      22.624065       615.6321 
 353   0.0000      22.704139       617.8110 
 354   0.0000      23.081254       628.0729 
 355   0.0000      31.808863       865.5632 
 356   0.0000      43.476150      1183.0462 
 357   0.0000      43.536844      1184.6977 

                    ********************************
                    * MULLIKEN POPULATION ANALYSIS *
                    ********************************

-----------------------
MULLIKEN ATOMIC CHARGES
-----------------------
   0 C :    0.171830
   1 C :   -0.181435
   2 C :   -0.095729
   3 C :   -0.122155
   4 C :   -0.098943
   5 C :   -0.180355
   6 C :   -0.357054
   7 H :    0.111818
   8 H :    0.118143
   9 H :    0.119128
  10 H :    0.102035
  11 H :    0.103075
  12 H :    0.103287
  13 H :    0.105200
  14 H :    0.101154
  15 N :    0.755048
  16 O :    0.122420
  17 O :    0.122532
Sum of atomic charges:    1.0000000

--------------------------------
MULLIKEN REDUCED ORBITAL CHARGES
--------------------------------
  0 C s       :     3.173416  s :     3.173416
      pz      :     0.793691  p :     2.520655
      px      :     0.888039
      py      :     0.838925
      dz2     :     0.025501  d :     0.124413
      dxz     :     0.025270
      dyz     :     0.037913
      dx2y2   :     0.017806
      dxy     :     0.017923
      f0      :     0.002178  f :     0.009685
      f+1     :     0.001124
      f-1     :     0.001639
      f+2     :     0.001369
      f-2     :     0.001315
      f+3     :     0.000708
      f-3     :     0.001351
  1 C s       :     3.246527  s :     3.246527
      pz      :     0.903678  p :     2.852406
      px      :     0.982245
      py      :     0.966483
      dz2     :     0.020723  d :     0.075331
      dxz     :     0.021250
      dyz     :     0.019813
      dx2y2   :     0.006817
      dxy     :     0.006728
      f0      :     0.001648  f :     0.007171
      f+1     :     0.001288
      f-1     :     0.001254
      f+2     :     0.000964
      f-2     :     0.000937
      f+3     :     0.000611
      f-3     :     0.000468
  2 C s       :     3.195975  s :     3.195975
      pz      :     0.932029  p :     2.813020
      px      :     0.957465
      py      :     0.923526
      dz2     :     0.015441  d :     0.079462
      dxz     :     0.015334
      dyz     :     0.023838
      dx2y2   :     0.012314
      dxy     :     0.012534
      f0      :     0.001320  f :     0.007272
      f+1     :     0.001274
      f-1     :     0.001239
      f+2     :     0.000587
      f-2     :     0.000864
      f+3     :     0.000651
      f-3     :     0.001335
  3 C s       :     3.211138  s :     3.211138
      pz      :     0.947527  p :     2.828407
      px      :     0.965909
      py      :     0.914971
      dz2     :     0.016439  d :     0.075481
      dxz     :     0.008875
      dyz     :     0.020074
      dx2y2   :     0.015733
      dxy     :     0.014360
      f0      :     0.001311  f :     0.007129
      f+1     :     0.000633
      f-1     :     0.001257
      f+2     :     0.000973
      f-2     :     0.000853
      f+3     :     0.000692
      f-3     :     0.001412
  4 C s       :     3.197761  s :     3.197761
      pz      :     0.904292  p :     2.814293
      px      :     0.959693
      py      :     0.950308
      dz2     :     0.022937  d :     0.079631
      dxz     :     0.022784
      dyz     :     0.020424
      dx2y2   :     0.006798
      dxy     :     0.006689
      f0      :     0.001531  f :     0.007259
      f+1     :     0.001274
      f-1     :     0.001275
      f+2     :     0.001046
      f-2     :     0.000975
      f+3     :     0.000633
      f-3     :     0.000524
  5 C s       :     3.227352  s :     3.227352
      pz      :     0.962386  p :     2.866050
      px      :     0.978208
      py      :     0.925456
      dz2     :     0.016684  d :     0.079724
      dxz     :     0.014929
      dyz     :     0.024323
      dx2y2   :     0.011703
      dxy     :     0.012085
      f0      :     0.001318  f :     0.007229
      f+1     :     0.001233
      f-1     :     0.001309
      f+2     :     0.000613
      f-2     :     0.000870
      f+3     :     0.000639
      f-3     :     0.001248
  6 C s       :     3.311800  s :     3.311800
      pz      :     0.905673  p :     2.992805
      px      :     1.044127
      py      :     1.043005
      dz2     :     0.011733  d :     0.048755
      dxz     :     0.014736
      dyz     :     0.011361
      dx2y2   :     0.004388
      dxy     :     0.006538
      f0      :     0.000823  f :     0.003693
      f+1     :     0.000605
      f-1     :     0.001127
      f+2     :     0.000192
      f-2     :     0.000275
      f+3     :     0.000507
      f-3     :     0.000165
  7 H s       :     0.866790  s :     0.866790
      pz      :     0.009083  p :     0.021392
      px      :     0.004987
      py      :     0.007322
  8 H s       :     0.860841  s :     0.860841
      pz      :     0.004540  p :     0.021016
      px      :     0.011466
      py      :     0.005010
  9 H s       :     0.859837  s :     0.859837
      pz      :     0.004229  p :     0.021035
      px      :     0.006763
      py      :     0.010044
 10 H s       :     0.875993  s :     0.875993
      pz      :     0.003689  p :     0.021971
      px      :     0.006157
      py      :     0.012126
 11 H s       :     0.874904  s :     0.874904
      pz      :     0.009907  p :     0.022021
      px      :     0.005530
      py      :     0.006585
 12 H s       :     0.874575  s :     0.874575
      pz      :     0.012217  p :     0.022138
      px      :     0.004722
      py      :     0.005199
 13 H s       :     0.872742  s :     0.872742
      pz      :     0.003735  p :     0.022057
      px      :     0.006110
      py      :     0.012212
 14 H s       :     0.876816  s :     0.876816
      pz      :     0.009796  p :     0.022030
      px      :     0.005616
      py      :     0.006618
 15 N s       :     3.137957  s :     3.137957
      pz      :     0.824074  p :     2.914187
      px      :     1.047480
      py      :     1.042633
      dz2     :     0.018097  d :     0.174666
      dxz     :     0.068194
      dyz     :     0.079063
      dx2y2   :     0.004592
      dxy     :     0.004720
      f0      :     0.006314  f :     0.018142
      f+1     :     0.004758
      f-1     :     0.004533
      f+2     :     0.001165
      f-2     :     0.001261
      f+3     :     0.000055
      f-3     :     0.000056
 16 O s       :     3.941695  s :     3.941695
      pz      :     1.188491  p :     3.877344
      px      :     1.274867
      py      :     1.413986
      dz2     :     0.019194  d :     0.054818
      dxz     :     0.017634
      dyz     :     0.013825
      dx2y2   :     0.002116
      dxy     :     0.002048
      f0      :     0.001149  f :     0.003723
      f+1     :     0.001072
      f-1     :     0.000792
      f+2     :     0.000334
      f-2     :     0.000335
      f+3     :     0.000020
      f-3     :     0.000021
 17 O s       :     3.941640  s :     3.941640
      pz      :     1.120436  p :     3.877267
      px      :     1.355079
      py      :     1.401752
      dz2     :     0.021886  d :     0.054837
      dxz     :     0.015951
      dyz     :     0.015774
      dx2y2   :     0.000605
      dxy     :     0.000619
      f0      :     0.001345  f :     0.003724
      f+1     :     0.001079
      f-1     :     0.001063
      f+2     :     0.000116
      f-2     :     0.000118
      f+3     :     0.000002
      f-3     :     0.000002


                     *******************************
                     * LOEWDIN POPULATION ANALYSIS *
                     *******************************

----------------------
LOEWDIN ATOMIC CHARGES
----------------------
   0 C :   -0.158229
   1 C :   -0.118365
   2 C :   -0.146908
   3 C :   -0.143782
   4 C :   -0.144324
   5 C :   -0.123445
   6 C :   -0.261826
   7 H :    0.125717
   8 H :    0.130634
   9 H :    0.131651
  10 H :    0.143574
  11 H :    0.141525
  12 H :    0.138911
  13 H :    0.141906
  14 H :    0.142961
  15 N :    0.190809
  16 O :    0.404464
  17 O :    0.404727

-------------------------------
LOEWDIN REDUCED ORBITAL CHARGES
-------------------------------
  0 C s       :     2.725942  s :     2.725942
      pz      :     0.999681  p :     2.867592
      px      :     0.866411
      py      :     1.001501
      dz2     :     0.132306  d :     0.509829
      dxz     :     0.086526
      dyz     :     0.150217
      dx2y2   :     0.069898
      dxy     :     0.070881
      f0      :     0.013218  f :     0.054866
      f+1     :     0.006616
      f-1     :     0.009159
      f+2     :     0.008283
      f-2     :     0.008409
      f+3     :     0.004841
      f-3     :     0.004340
  1 C s       :     2.767982  s :     2.767982
      pz      :     1.050553  p :     2.937015
      px      :     0.916896
      py      :     0.969566
      dz2     :     0.131317  d :     0.372291
      dxz     :     0.077716
      dyz     :     0.099858
      dx2y2   :     0.030580
      dxy     :     0.032819
      f0      :     0.010863  f :     0.041076
      f+1     :     0.005242
      f-1     :     0.008160
      f+2     :     0.006699
      f-2     :     0.006614
      f+3     :     0.002600
      f-3     :     0.000898
  2 C s       :     2.772250  s :     2.772250
      pz      :     1.023997  p :     2.948244
      px      :     0.910561
      py      :     1.013686
      dz2     :     0.084067  d :     0.383951
      dxz     :     0.061923
      dyz     :     0.136131
      dx2y2   :     0.049706
      dxy     :     0.052124
      f0      :     0.010026  f :     0.042463
      f+1     :     0.006059
      f-1     :     0.007879
      f+2     :     0.004269
      f-2     :     0.004828
      f+3     :     0.004584
      f-3     :     0.004817
  3 C s       :     2.777159  s :     2.777159
      pz      :     0.998286  p :     2.955258
      px      :     0.930989
      py      :     1.025983
      dz2     :     0.097717  d :     0.370912
      dxz     :     0.036261
      dyz     :     0.113494
      dx2y2   :     0.062173
      dxy     :     0.061267
      f0      :     0.008401  f :     0.040453
      f+1     :     0.003442
      f-1     :     0.007011
      f+2     :     0.006118
      f-2     :     0.005990
      f+3     :     0.005011
      f-3     :     0.004480
  4 C s       :     2.773045  s :     2.773045
      pz      :     1.068579  p :     2.947383
      px      :     0.906243
      py      :     0.972561
      dz2     :     0.132449  d :     0.381779
      dxz     :     0.084377
      dyz     :     0.101049
      dx2y2   :     0.030953
      dxy     :     0.032952
      f0      :     0.010861  f :     0.042117
      f+1     :     0.005298
      f-1     :     0.008316
      f+2     :     0.007068
      f-2     :     0.006891
      f+3     :     0.002678
      f-3     :     0.001005
  5 C s       :     2.767465  s :     2.767465
      pz      :     1.022008  p :     2.939462
      px      :     0.919456
      py      :     0.997998
      dz2     :     0.085592  d :     0.375174
      dxz     :     0.059317
      dyz     :     0.135445
      dx2y2   :     0.046204
      dxy     :     0.048616
      f0      :     0.009863  f :     0.041344
      f+1     :     0.005892
      f-1     :     0.007936
      f+2     :     0.004177
      f-2     :     0.004650
      f+3     :     0.004441
      f-3     :     0.004386
  6 C s       :     2.824009  s :     2.824009
      pz      :     1.032336  p :     3.153680
      px      :     1.064924
      py      :     1.056420
      dz2     :     0.069282  d :     0.258370
      dxz     :     0.049780
      dyz     :     0.068401
      dx2y2   :     0.029026
      dxy     :     0.041882
      f0      :     0.004879  f :     0.025766
      f+1     :     0.005698
      f-1     :     0.004833
      f+2     :     0.003361
      f-2     :     0.002986
      f+3     :     0.002715
      f-3     :     0.001294
  7 H s       :     0.815535  s :     0.815535
      pz      :     0.022341  p :     0.058748
      px      :     0.014754
      py      :     0.021652
  8 H s       :     0.810997  s :     0.810997
      pz      :     0.012282  p :     0.058369
      px      :     0.031862
      py      :     0.014225
  9 H s       :     0.810075  s :     0.810075
      pz      :     0.011786  p :     0.058274
      px      :     0.019386
      py      :     0.027102
 10 H s       :     0.799033  s :     0.799033
      pz      :     0.010816  p :     0.057394
      px      :     0.016557
      py      :     0.030021
 11 H s       :     0.801447  s :     0.801447
      pz      :     0.024703  p :     0.057028
      px      :     0.014904
      py      :     0.017420
 12 H s       :     0.803499  s :     0.803499
      pz      :     0.030202  p :     0.057590
      px      :     0.013114
      py      :     0.014275
 13 H s       :     0.800966  s :     0.800966
      pz      :     0.010951  p :     0.057128
      px      :     0.016180
      py      :     0.029997
 14 H s       :     0.799557  s :     0.799557
      pz      :     0.024680  p :     0.057482
      px      :     0.015326
      py      :     0.017476
 15 N s       :     2.967940  s :     2.967940
      pz      :     1.142351  p :     3.149214
      px      :     1.016114
      py      :     0.990749
      dz2     :     0.172782  d :     0.624402
      dxz     :     0.222261
      dyz     :     0.210307
      dx2y2   :     0.009691
      dxy     :     0.009361
      f0      :     0.027249  f :     0.067635
      f+1     :     0.015271
      f-1     :     0.010912
      f+2     :     0.006753
      f-2     :     0.006846
      f+3     :     0.000305
      f-3     :     0.000298
 16 O s       :     3.492674  s :     3.492674
      pz      :     1.345215  p :     3.972612
      px      :     1.270128
      py      :     1.357269
      dz2     :     0.046453  d :     0.116721
      dxz     :     0.038075
      dyz     :     0.024744
      dx2y2   :     0.003905
      dxy     :     0.003544
      f0      :     0.004240  f :     0.013529
      f+1     :     0.004524
      f-1     :     0.002569
      f+2     :     0.001104
      f-2     :     0.000981
      f+3     :     0.000055
      f-3     :     0.000055
 17 O s       :     3.492465  s :     3.492465
      pz      :     1.310641  p :     3.972493
      px      :     1.310958
      py      :     1.350895
      dz2     :     0.055985  d :     0.116775
      dxz     :     0.029587
      dyz     :     0.029096
      dx2y2   :     0.001021
      dxy     :     0.001086
      f0      :     0.005612  f :     0.013540
      f+1     :     0.003691
      f-1     :     0.003571
      f+2     :     0.000313
      f-2     :     0.000343
      f+3     :     0.000006
      f-3     :     0.000005


                      *****************************
                      * MAYER POPULATION ANALYSIS *
                      *****************************

  NA   - Mulliken gross atomic population
  ZA   - Total nuclear charge
  QA   - Mulliken gross atomic charge
  VA   - Mayer's total valence
  BVA  - Mayer's bonded valence
  FA   - Mayer's free valence

  ATOM       NA         ZA         QA         VA         BVA        FA
  0 C      5.8282     6.0000     0.1718     3.6516     3.6516    -0.0000
  1 C      6.1814     6.0000    -0.1814     3.9236     3.9236    -0.0000
  2 C      6.0957     6.0000    -0.0957     3.9074     3.9074     0.0000
  3 C      6.1222     6.0000    -0.1222     3.9130     3.9130     0.0000
  4 C      6.0989     6.0000    -0.0989     3.9170     3.9170    -0.0000
  5 C      6.1804     6.0000    -0.1804     3.9588     3.9588    -0.0000
  6 C      6.3571     6.0000    -0.3571     3.8578     3.8578    -0.0000
  7 H      0.8882     1.0000     0.1118     0.9764     0.9764     0.0000
  8 H      0.8819     1.0000     0.1181     0.9608     0.9608     0.0000
  9 H      0.8809     1.0000     0.1191     0.9586     0.9586    -0.0000
 10 H      0.8980     1.0000     0.1020     0.9718     0.9718    -0.0000
 11 H      0.8969     1.0000     0.1031     0.9688     0.9688     0.0000
 12 H      0.8967     1.0000     0.1033     0.9687     0.9687     0.0000
 13 H      0.8948     1.0000     0.1052     0.9690     0.9690    -0.0000
 14 H      0.8988     1.0000     0.1012     0.9735     0.9735    -0.0000
 15 N      6.2450     7.0000     0.7550     4.0534     4.0534     0.0000
 16 O      7.8776     8.0000     0.1224     2.5080     2.5080     0.0000
 17 O      7.8775     8.0000     0.1225     2.5082     2.5082    -0.0000

[...]

Time for X-Grid setup             =    2.804 sec

--------------
SCF ITERATIONS
--------------
ITER       Energy         Delta-E        Max-DP      RMS-DP      [F,P]     Damp
               ***  Starting incremental Fock matrix formation  ***
  0   -476.2336707737   0.000000000000 0.00477221  0.00006817  0.0437777 0.7000
  1   -476.2353068631  -0.001636089319 0.00451015  0.00006470  0.0338088 0.7000
                               ***Turning on DIIS***
  2   -476.2365924743  -0.001285611234 0.01214778  0.00018029  0.0249508 0.0000
                      *** Initiating the SOSCF procedure ***
                           *** Shutting down DIIS ***
                      *** Re-Reading the Fockian *** 
                      *** Removing any level shift *** 
ITER      Energy       Delta-E        Grad      Rot      Max-DP    RMS-DP
  3   -476.23988111  -0.0032886325  0.002592  0.002592  0.002439  0.000044
               *** Restarting incremental Fock matrix formation ***
  4   -476.23997443  -0.0000933216  0.001978  0.029624  0.015676  0.000199
  5   -476.23942307   0.0005513606  0.012940  0.029403  0.015286  0.000192
  6   -476.24012642  -0.0007033479  0.000889  0.020544  0.004513  0.000096
  7   -476.24014940  -0.0000229868  0.001423  0.002479  0.001366  0.000016
  8   -476.24016020  -0.0000107924  0.000925  0.005492  0.001077  0.000026
  9   -476.24016268  -0.0000024845  0.000250  0.002694  0.000540  0.000013
 10   -476.24016479  -0.0000021119  0.000268  0.001325  0.000470  0.000007
 11   -476.24016360   0.0000011957  0.000575  0.001082  0.000326  0.000006
 12   -476.24016511  -0.0000015146  0.000029  0.000350  0.000081  0.000002
 13   -476.24016507   0.0000000417  0.000049  0.000208  0.000053  0.000001
 14   -476.24016515  -0.0000000806  0.000014  0.000099  0.000031  0.000001
 15   -476.24016514   0.0000000105  0.000017  0.000068  0.000032  0.000001
                  ***Gradient check signals convergence***
              ***Rediagonalizing the Fockian in SOSCF/NRSCF***

               *****************************************************
               *                     SUCCESS                       *
               *           SCF CONVERGED AFTER  16 CYCLES          *
               *****************************************************

Old exchange energy                            =    -12.329583545 Eh
New exchange energy                            =    -12.329576972 Eh
Exchange energy change after final integration =      0.000006573 Eh
Total energy after final integration           =   -476.240158582 Eh
Final COS-X integration done in                =    54.359 sec
Total Energy       :         -476.24015858 Eh          -12959.15355 eV
  Last Energy change         ...   -1.6958e-08  Tolerance :   1.0000e-08
  Last MAX-Density change    ...    1.2212e-15  Tolerance :   1.0000e-07
             **** THE GBW FILE WAS UPDATED (e_c_13.gbw) ****
             **** DENSITY e_c_13.scfp WAS UPDATED ****
             **** ENERGY FILE WAS UPDATED (e_c_13.en.tmp) ****
             **** THE GBW FILE WAS UPDATED (e_c_13.gbw) ****
             **** DENSITY e_c_13.scfp WAS UPDATED ****
Total SCF time: 0 days 0 hours 8 min 4 sec 

Maximum memory used throughout the entire SCF-calculation: 164.6 MB


-------------------------------------------------------------------------------
                          DFT DISPERSION CORRECTION                            
                                                                               
                              DFTD3 V3.1  Rev 1                                
                          USING Becke-Johnson damping                          
-------------------------------------------------------------------------------
-------------------------   ----------------
Dispersion correction           -0.025776974
-------------------------   ----------------


-------------------------   --------------------
FINAL SINGLE POINT ENERGY      -476.265935556470
-------------------------   --------------------

------------------------------------------------------------------------------
                         ORCA SCF GRADIENT CALCULATION
------------------------------------------------------------------------------

 ... reading COSX grid (gridx3)
Gradient of the Kohn-Sham DFT energy:
Kohn-Sham wavefunction type      ... RKS
Hartree-Fock exchange scaling    ...    0.200
Number of operators              ...    1
Number of atoms                  ...   18
Basis set dimensions             ...  358
Integral neglect threshold       ... 2.5e-11
Integral primitive cutoff        ... 2.5e-12
SHARK Integral package           ... ON

Nuc. rep. gradient       (SHARK) ... done (  0.0 sec)
HCore & Overlap gradient (SHARK) ... done (  1.3 sec)
RI-J gradient            (SHARK) ... done (  9.4 sec)
COSX-gradient                    ... done ( 68.2 sec)
Exchange-correlation gradient    ... done
Dispersion correction            ... done

------------------
CARTESIAN GRADIENT
------------------

   1   C   :   -0.000170338   -0.005526849   -0.010694353
   2   C   :    0.003712700   -0.002678204    0.010081076
   3   C   :    0.004133528   -0.004190650   -0.005247307
   4   C   :   -0.001312590   -0.003327111    0.004834592
   5   C   :   -0.003025155    0.002350370   -0.010062194
   6   C   :   -0.004284960    0.010142255    0.006126743
   7   C   :    0.001891192    0.003116492    0.003888875
   8   H   :   -0.000579845   -0.000201451    0.000461518
   9   H   :   -0.000100091   -0.000094255    0.000472667
  10   H   :   -0.000524708    0.000132354    0.000585181
  11   H   :   -0.000123796    0.000622414    0.000112634
  12   H   :   -0.001610137   -0.001606605   -0.000016365
  13   H   :    0.001517083    0.002479315   -0.001460650
  14   H   :    0.000059912   -0.000531635    0.000358702
  15   H   :    0.000417046   -0.000626878    0.000481412
  16   N   :    0.009965480   -0.019053298   -0.004494266
  17   O   :   -0.010004338   -0.002032112   -0.030815908
  18   O   :    0.000060068    0.021043925    0.035349344

Difference to translation invariance:
           :    0.0000210536    0.0000180758   -0.0000383004

Difference to rotation invariance:
           :   -0.0026825553   -0.0006112106    0.0000140206

Norm of the cartesian gradient     ...    0.0625829762
RMS gradient                       ...    0.0085164643
MAX gradient                       ...    0.0353493441

-------
TIMINGS
-------

Total SCF gradient time            ...       97.833 sec

One electron gradient       ....       1.316 sec  (  1.3%)
RI-J Coulomb gradient       ....       9.394 sec  (  9.6%)
COSX gradient               ....      68.244 sec  ( 69.8%)
XC gradient                 ....      15.648 sec  ( 16.0%)

Maximum memory used throughout the entire SCFGRAD-calculation: 134.5 MB
------------------------------------------------------------------------------
                         ORCA GEOMETRY RELAXATION STEP
------------------------------------------------------------------------------

Reading the OPT-File                    .... done
Getting information on internals        .... done
Copying old internal coords+grads       .... done
Making the new internal coordinates     .... (new redundants).... done
Validating the new internal coordinates .... (new redundants).... done
Calculating the B-matrix                .... done
Calculating the G,G- and P matrices     .... done
Transforming gradient to internals      .... done
Projecting the internal gradient        .... done
Number of atoms                         ....  18
Number of internal coordinates          .... 100
Current Energy                          ....  -476.265935556 Eh
Current gradient norm                   ....     0.062582976 Eh/bohr
Maximum allowed component of the step   ....  0.300
Current trust radius                    ....  0.300
Resetting Hessian after 50 BFGS Update Steps....
Build internal Hessian                  .... (Almloef) done
Updating Hessian with the last 5 steps  .... done
Forming the augmented Hessian           .... done
Diagonalizing the augmented Hessian     .... done
Last element of RFO vector              ....  0.979327187
Lowest eigenvalues of augmented Hessian:
 -0.003330225  0.000006259  0.000453011  0.002054559  0.007673066
Length of the computed step             ....  0.206552653
The final length of the internal step   ....  0.206552653
Converting the step to cartesian space:
 Initial RMS(Int)=    0.0206552653
Transforming coordinates:
 Iter   0:  RMS(Cart)=    0.0398425060 RMS(Int)=    0.8880450400
 Iter   1:  RMS(Cart)=    0.0031575990 RMS(Int)=    0.0031847473
 Iter   2:  RMS(Cart)=    0.0017743865 RMS(Int)=    0.0018047569
 Iter   3:  RMS(Cart)=    0.0010678683 RMS(Int)=    0.0010694992
 Iter   4:  RMS(Cart)=    0.0006361009 RMS(Int)=    0.0006342226
 Iter   5:  RMS(Cart)=    0.0003769223 RMS(Int)=    0.0003752623
 Iter   6:  RMS(Cart)=    0.0002227334 RMS(Int)=    0.0002216409
 Iter   7:  RMS(Cart)=    0.0001314311 RMS(Int)=    0.0001307620
 Iter   8:  RMS(Cart)=    0.0000774945 RMS(Int)=    0.0000770941
 Iter   9:  RMS(Cart)=    0.0000456720 RMS(Int)=    0.0000454345
 Iter  10:  RMS(Cart)=    0.0000269102 RMS(Int)=    0.0000267698
 Iter  11:  RMS(Cart)=    0.0000158532 RMS(Int)=    0.0000157704
 Iter  12:  RMS(Cart)=    0.0000093386 RMS(Int)=    0.0000092897
 Iter  13:  RMS(Cart)=    0.0000055007 RMS(Int)=    0.0000054719
 Iter  14:  RMS(Cart)=    0.0000032400 RMS(Int)=    0.0000032231
 Iter  15:  RMS(Cart)=    0.0000019084 RMS(Int)=    0.0000018984
 Iter  16:  RMS(Cart)=    0.0000011240 RMS(Int)=    0.0000011182
 Iter  17:  RMS(Cart)=    0.0000006621 RMS(Int)=    0.0000006586
 Iter  18:  RMS(Cart)=    0.0000003899 RMS(Int)=    0.0000003879
 Iter  19:  RMS(Cart)=    0.0000002297 RMS(Int)=    0.0000002285
 Iter  20:  RMS(Cart)=    0.0000001353 RMS(Int)=    0.0000001346
 Iter  21:  RMS(Cart)=    0.0000000797 RMS(Int)=    0.0000000793
done
Storing new coordinates                 .... done

                                .--------------------.
          ----------------------|Geometry convergence|-------------------------
          Item                value                   Tolerance       Converged
          ---------------------------------------------------------------------
          Energy change      -0.0003321021            0.0000010000      NO
          RMS gradient        0.0055462858            0.0000300000      NO
          MAX gradient        0.0410385105            0.0001000000      NO
          RMS step            0.0206552653            0.0006000000      NO
          MAX step            0.1331149716            0.0010000000      NO
          ........................................................
          Max(Bonds)      0.0261      Max(Angles)    7.63
          Max(Dihed)        4.20      Max(Improp)    0.00
          ---------------------------------------------------------------------

The optimization has not yet converged - more geometry cycles are needed


    ---------------------------------------------------------------------------
                         Redundant Internal Coordinates
                            (Angstroem and degrees)

        Definition                    Value    dE/dq     Step     New-Value
    ----------------------------------------------------------------------------
     1. B(C   1,C   0)                1.4036 -0.007031  0.0066    1.4102   
     2. B(C   2,C   1)                1.3844  0.005824 -0.0054    1.3790   
     3. B(C   3,C   2)                1.3974 -0.004667  0.0035    1.4009   
     4. B(C   4,C   3)                1.3931 -0.006386  0.0058    1.3989   
     5. B(C   5,C   4)                1.3884  0.006690 -0.0064    1.3820   
     6. B(C   5,C   0)                1.3982 -0.007607  0.0075    1.4057   
     7. B(C   6,C   0)                1.5019  0.006143 -0.0099    1.4921   
     8. B(H   7,C   6)                1.0895  0.000353 -0.0009    1.0885   
     9. B(H   8,C   6)                1.0924  0.000154 -0.0002    1.0922   
    10. B(H   9,C   6)                1.0959 -0.000246  0.0003    1.0962   
    11. B(H  10,C   1)                1.0837  0.000624 -0.0008    1.0828   
    12. B(H  11,C   2)                1.0816 -0.000268  0.0006    1.0823   
    13. B(H  12,C   3)                1.0830  0.000357 -0.0012    1.0818   
    14. B(H  13,C   4)                1.0824  0.000434 -0.0006    1.0817   
    15. B(H  14,C   5)                1.0837  0.000865 -0.0014    1.0823   
    16. B(O  16,H  12)               25.7986 -0.000307 -0.0023   25.7963   
    17. B(O  16,H  11)               26.3028 -0.000075  0.0261   26.3288   
    18. B(O  16,C   3)               26.8154  0.000352 -0.0007   26.8147   
    19. B(O  16,N  15)                1.1330 -0.032344  0.0135    1.1464   
    20. B(O  17,N  15)                1.1282 -0.041039  0.0171    1.1453   
    21. A(C   5,C   0,C   6)          121.16  0.000780   -0.09    121.06   
    22. A(C   1,C   0,C   5)          118.53 -0.000906    0.04    118.57   
    23. A(C   1,C   0,C   6)          120.31  0.000126    0.05    120.36   
    24. A(C   0,C   1,C   2)          120.76  0.000592    0.02    120.77   
    25. A(C   0,C   1,H  10)          119.30 -0.000320   -0.06    119.24   
    26. A(C   2,C   1,H  10)          119.94 -0.000273    0.04    119.98   
    27. A(C   3,C   2,H  11)          119.52 -0.000913    0.24    119.76   
    28. A(C   1,C   2,C   3)          120.07  0.000619   -0.14    119.93   
    29. A(C   1,C   2,H  11)          120.38  0.000293   -0.09    120.29   
    30. A(C   4,C   3,O  16)          140.26  0.001203   -0.86    139.41   
    31. A(H  12,C   3,O  16)           19.73 -0.000452   -0.44     19.29   
    32. A(C   4,C   3,H  12)          120.99  0.001678   -0.49    120.50   
    33. A(C   2,C   3,O  16)           99.93  0.000459    0.62    100.56   
    34. A(C   2,C   3,C   4)          119.76 -0.001657    0.23    120.00   
    35. A(C   2,C   3,H  12)          119.19 -0.000037    0.28    119.46   
    36. A(C   5,C   4,H  13)          119.73 -0.000552    0.21    119.95   
    37. A(C   3,C   4,H  13)          120.34  0.000289   -0.19    120.15   
    38. A(C   3,C   4,C   5)          119.93  0.000264   -0.03    119.90   
    39. A(C   4,C   5,H  14)          119.64 -0.000786    0.25    119.89   
    40. A(C   0,C   5,C   4)          120.94  0.001083   -0.12    120.82   
    41. A(C   0,C   5,H  14)          119.42 -0.000299   -0.12    119.30   
    42. A(H   8,C   6,H   9)          106.45 -0.000532    0.13    106.58   
    43. A(H   7,C   6,H   9)          107.94 -0.000162   -0.15    107.79   
    44. A(C   0,C   6,H   9)          110.43  0.001112   -0.31    110.12   
    45. A(H   7,C   6,H   8)          108.83 -0.000632    0.23    109.07   
    46. A(C   0,C   6,H   8)          111.17  0.000141    0.04    111.21   
    47. A(C   0,C   6,H   7)          111.82  0.000020    0.05    111.87   
    48. A(C   2,H  11,O  16)          136.02  0.000559   -0.91    135.11   
    49. A(C   3,H  12,O  16)          159.46  0.000467    0.46    159.92   
    50. L(O  16,N  15,O  17,H  11, 2) 279.32 -0.000358   -7.63    271.70   
    51. L(O  16,N  15,O  17,H  11, 1) 166.02  0.006035   -3.81    162.21   
    52. A(C   3,O  16,N  15)          173.39  0.000370   -0.78    172.61   
    53. A(H  11,O  16,H  12)            5.30 -0.000131    0.01      5.31   
    54. A(H  12,O  16,N  15)          173.27  0.000371   -0.77    172.50   
    55. A(H  11,O  16,N  15)          173.17  0.000365   -0.64    172.53   
    56. D(C   2,C   1,C   0,C   5)     -0.97 -0.000122    0.41     -0.56   
    57. D(C   2,C   1,C   0,C   6)    178.24 -0.000139    0.37    178.61   
    58. D(H  10,C   1,C   0,C   6)     -1.79 -0.000071    0.06     -1.74   
    59. D(H  10,C   1,C   0,C   5)    179.00 -0.000054    0.10    179.10   
    60. D(C   3,C   2,C   1,C   0)     -0.31 -0.000075    0.14     -0.17   
    61. D(C   3,C   2,C   1,H  10)    179.72 -0.000144    0.46    180.18   
    62. D(H  11,C   2,C   1,H  10)     -2.23 -0.000227    0.71     -1.51   
    63. D(H  11,C   2,C   1,C   0)    177.74 -0.000159    0.40    178.14   
    64. D(O  16,C   3,C   2,H  11)      1.33  0.000335   -0.53      0.81   
    65. D(H  12,C   3,C   2,H  11)      5.94  0.000495   -1.02      4.91   
    66. D(H  12,C   3,C   2,C   1)   -175.99  0.000436   -0.78   -176.77   
    67. D(C   4,C   3,C   2,H  11)   -176.92  0.000174   -0.69   -177.61   
    68. D(C   4,C   3,C   2,C   1)      1.15  0.000114   -0.44      0.71   
    69. D(O  16,C   3,C   2,C   1)    179.41  0.000276   -0.28    179.12   
    70. D(C   5,C   4,C   3,C   2)     -0.69 -0.000003    0.17     -0.51   
    71. D(H  13,C   4,C   3,O  16)      2.09 -0.000190    0.01      2.10   
    72. D(H  13,C   4,C   3,H  12)     -3.51 -0.000385    0.64     -2.87   
    73. D(H  13,C   4,C   3,C   2)    179.40 -0.000005    0.27    179.67   
    74. D(C   5,C   4,C   3,O  16)   -178.00 -0.000188   -0.08   -178.08   
    75. D(C   5,C   4,C   3,H  12)    176.40 -0.000383    0.54    176.95   
    76. D(H  14,C   5,C   4,H  13)     -0.07  0.000033   -0.19     -0.25   
    77. D(C   0,C   5,C   4,H  13)    179.29 -0.000194    0.30    179.60   
    78. D(C   0,C   5,C   4,C   3)     -0.62 -0.000196    0.40     -0.22   
    79. D(H  14,C   5,C   0,C   6)      1.60  0.000035   -0.15      1.45   
    80. D(H  14,C   5,C   0,C   1)   -179.20  0.000013   -0.19   -179.40   
    81. D(H  14,C   5,C   4,C   3)   -179.98  0.000031   -0.10   -180.07   
    82. D(C   4,C   5,C   0,C   1)      1.44  0.000242   -0.68      0.75   
    83. D(C   4,C   5,C   0,C   6)   -177.76  0.000265   -0.64   -178.40   
    84. D(H   8,C   6,C   0,C   1)     41.33  0.000275    1.47     42.80   
    85. D(H   7,C   6,C   0,C   5)    -17.62 -0.000455    1.79    -15.83   
    86. D(H   7,C   6,C   0,C   1)    163.20 -0.000424    1.83    165.03   
    87. D(H   9,C   6,C   0,C   5)    102.59  0.000110    1.42    104.01   
    88. D(H   9,C   6,C   0,C   1)    -76.59  0.000141    1.46    -75.13   
    89. D(H   8,C   6,C   0,C   5)   -139.49  0.000244    1.43   -138.06   
    90. D(O  16,H  11,C   2,C   3)     -1.93 -0.000502    0.91     -1.02   
    91. D(O  16,H  11,C   2,C   1)   -180.00 -0.000449    0.67   -179.33   
    92. D(O  16,H  12,C   3,C   4)    169.36 -0.000339    0.89    170.24   
    93. D(O  16,H  12,C   3,C   2)    -13.54 -0.000763    1.25    -12.29   
    94. D(H  11,O  16,H  12,C   3)      9.64  0.000433   -0.69      8.95   
    95. D(N  15,O  16,H  12,C   3)   -102.25 -0.000205    0.81   -101.44   
    96. D(H  12,O  16,H  11,C   2)     -0.62  0.000206   -0.39     -1.00   
    97. D(N  15,O  16,H  11,C   2)    113.27  0.001018   -4.20    109.07   
    98. D(N  15,O  16,C   3,H  12)     84.61  0.000049   -0.31     84.30   
    99. D(N  15,O  16,C   3,C   4)     70.27 -0.000524    1.04     71.31   
   100. D(N  15,O  16,C   3,C   2)   -107.36 -0.000645    0.80   -106.57   
    ----------------------------------------------------------------------------




    ----------------------------------------------------------------------------
                                   ERROR !!!
       The optimization did not converge but reached the maximum 
       number of optimization cycles.
       As a subsequent Frequencies calculation has been requested
       ORCA will abort at this point of the run.
       Please restart the calculation with the lowest energy geometry and/or
       a larger maxiter for the geometry optimization.
    ----------------------------------------------------------------------------


[file orca_main/run.cpp, line 12331]: ORCA finished with error return - aborting the run
