
                                 *****************
                                 * O   R   C   A *
                                 *****************

                                            #,                                       
                                            ###                                      
                                            ####                                     
                                            #####                                    
                                            ######                                   
                                           ########,                                 
                                     ,,################,,,,,                         
                               ,,#################################,,                 
                          ,,##########################################,,             
                       ,#########################################, ''#####,          
                    ,#############################################,,   '####,        
                  ,##################################################,,,,####,       
                ,###########''''           ''''###############################       
              ,#####''   ,,,,##########,,,,          '''####'''          '####       
            ,##' ,,,,###########################,,,                        '##       
           ' ,,###''''                  '''############,,,                           
         ,,##''                                '''############,,,,        ,,,,,,###''
      ,#''                                            '''#######################'''  
     '                                                          ''''####''''         
             ,#######,   #######,   ,#######,      ##                                
            ,#'     '#,  ##    ##  ,#'     '#,    #''#        ######   ,####,        
            ##       ##  ##   ,#'  ##            #'  '#       #        #'  '#        
            ##       ##  #######   ##           ,######,      #####,   #    #        
            '#,     ,#'  ##    ##  '#,     ,#' ,#      #,         ##   #,  ,#        
             '#######'   ##     ##  '#######'  #'      '#     #####' # '####'        



                  #######################################################
                  #                        -***-                        #
                  #          Department of theory and spectroscopy      #
                  #    Directorship and core code : Frank Neese         #
                  #        Max Planck Institute fuer Kohlenforschung    #
                  #                Kaiser Wilhelm Platz 1               #
                  #                 D-45470 Muelheim/Ruhr               #
                  #                      Germany                        #
                  #                                                     #
                  #                  All rights reserved                #
                  #                        -***-                        #
                  #######################################################



                         Program Version 5.0.4 -  RELEASE  -

 With contributions from (in alphabetic order):
   Daniel Aravena         : Magnetic Suceptibility
   Michael Atanasov       : Ab Initio Ligand Field Theory (pilot matlab implementation)
   Alexander A. Auer      : GIAO ZORA, VPT2 properties, NMR spectrum
   Ute Becker             : Parallelization
   Giovanni Bistoni       : ED, misc. LED, open-shell LED, HFLD
   Martin Brehm           : Molecular dynamics
   Dmytro Bykov           : SCF Hessian
   Vijay G. Chilkuri      : MRCI spin determinant printing, contributions to CSF-ICE
   Dipayan Datta          : RHF DLPNO-CCSD density
   Achintya Kumar Dutta   : EOM-CC, STEOM-CC
   Dmitry Ganyushin       : Spin-Orbit,Spin-Spin,Magnetic field MRCI
   Miquel Garcia          : C-PCM and meta-GGA Hessian, CC/C-PCM, Gaussian charge scheme
   Yang Guo               : DLPNO-NEVPT2, F12-NEVPT2, CIM, IAO-localization
   Andreas Hansen         : Spin unrestricted coupled pair/coupled cluster methods
   Benjamin Helmich-Paris : MC-RPA, TRAH-SCF, COSX integrals
   Lee Huntington         : MR-EOM, pCC
   Robert Izsak           : Overlap fitted RIJCOSX, COSX-SCS-MP3, EOM
   Marcus Kettner         : VPT2
   Christian Kollmar      : KDIIS, OOCD, Brueckner-CCSD(T), CCSD density, CASPT2, CASPT2-K
   Simone Kossmann        : Meta GGA functionals, TD-DFT gradient, OOMP2, MP2 Hessian
   Martin Krupicka        : Initial AUTO-CI
   Lucas Lang             : DCDCAS
   Marvin Lechner         : AUTO-CI (C++ implementation), FIC-MRCC
   Dagmar Lenk            : GEPOL surface, SMD
   Dimitrios Liakos       : Extrapolation schemes; Compound Job, initial MDCI parallelization
   Dimitrios Manganas     : Further ROCIS development; embedding schemes
   Dimitrios Pantazis     : SARC Basis sets
   Anastasios Papadopoulos: AUTO-CI, single reference methods and gradients
   Taras Petrenko         : DFT Hessian,TD-DFT gradient, ASA, ECA, R-Raman, ABS, FL, XAS/XES, NRVS
   Peter Pinski           : DLPNO-MP2, DLPNO-MP2 Gradient
   Christoph Reimann      : Effective Core Potentials
   Marius Retegan         : Local ZFS, SOC
   Christoph Riplinger    : Optimizer, TS searches, QM/MM, DLPNO-CCSD(T), (RO)-DLPNO pert. Triples
   Tobias Risthaus        : Range-separated hybrids, TD-DFT gradient, RPA, STAB
   Michael Roemelt        : Original ROCIS implementation
   Masaaki Saitow         : Open-shell DLPNO-CCSD energy and density
   Barbara Sandhoefer     : DKH picture change effects
   Avijit Sen             : IP-ROCIS
   Kantharuban Sivalingam : CASSCF convergence, NEVPT2, FIC-MRCI
   Bernardo de Souza      : ESD, SOC TD-DFT
   Georgi Stoychev        : AutoAux, RI-MP2 NMR, DLPNO-MP2 response
   Willem Van den Heuvel  : Paramagnetic NMR
   Boris Wezisla          : Elementary symmetry handling
   Frank Wennmohs         : Technical directorship


 We gratefully acknowledge several colleagues who have allowed us to
 interface, adapt or use parts of their codes:
   Stefan Grimme, W. Hujo, H. Kruse, P. Pracht,  : VdW corrections, initial TS optimization,
                  C. Bannwarth, S. Ehlert          DFT functionals, gCP, sTDA/sTD-DF
   Ed Valeev, F. Pavosevic, A. Kumar             : LibInt (2-el integral package), F12 methods
   Garnet Chan, S. Sharma, J. Yang, R. Olivares  : DMRG
   Ulf Ekstrom                                   : XCFun DFT Library
   Mihaly Kallay                                 : mrcc  (arbitrary order and MRCC methods)
   Jiri Pittner, Ondrej Demel                    : Mk-CCSD
   Frank Weinhold                                : gennbo (NPA and NBO analysis)
   Christopher J. Cramer and Donald G. Truhlar   : smd solvation model
   Lars Goerigk                                  : TD-DFT with DH, B97 family of functionals
   V. Asgeirsson, H. Jonsson                     : NEB implementation
   FAccTs GmbH                                   : IRC, NEB, NEB-TS, DLPNO-Multilevel, CI-OPT
                                                   MM, QMMM, 2- and 3-layer-ONIOM, Crystal-QMMM,
                                                   LR-CPCM, SF, NACMEs, symmetry and pop. for TD-DFT,
                                                   nearIR, NL-DFT gradient (VV10), updates on ESD,
                                                   ML-optimized integration grids
   S Lehtola, MJT Oliveira, MAL Marques          : LibXC Library
   Liviu Ungur et al                             : ANISO software


 Your calculation uses the libint2 library for the computation of 2-el integrals
 For citations please refer to: http://libint.valeyev.net

 Your ORCA version has been built with support for libXC version: 5.1.0
 For citations please refer to: https://tddft.org/programs/libxc/

 This ORCA versions uses:
   CBLAS   interface :  Fast vector & matrix operations
   LAPACKE interface :  Fast linear algebra routines
   Shared memory     :  Shared parallel matrices


Your calculation utilizes the atom-pairwise dispersion correction
based on tight binding partial charges (D4)
Cite in your paper:
E.Caldeweyher, C.Bannwarth, S.Grimme, J.Chem.Phys., (2017), 147, 034112.
E.Caldeweyher, S.Ehlert, A.Hansen, H.Neugebauer, S.Grimme, J.Chem.Phys., (2018), in progress.
   

================================================================================

----- Orbital basis set information -----
Your calculation utilizes the basis: def2-SVP
   F. Weigend and R. Ahlrichs, Phys. Chem. Chem. Phys. 7, 3297 (2005).

----- AuxJ basis set information -----
Your calculation utilizes the auxiliary basis: def2/J
   F. Weigend, Phys. Chem. Chem. Phys. 8, 1057 (2006).

================================================================================
                                        WARNINGS
                       Please study these warnings very carefully!
================================================================================


WARNING: Geometry Optimization
  ===> : Switching off AutoStart
         For restart on a previous wavefunction, please use MOREAD

INFO   : the flag for use of the SHARK integral package has been found!

================================================================================
                                       INPUT FILE
================================================================================
NAME = opt.inp
|  1> !B3LYP DEF2-SVP OPT FREQ D4 SOSCF
|  2> 
|  3> * xyz 0 1
|  4>    C       -7.64127        1.06888       -0.00000
|  5>    C       -8.79100        0.25778       -0.00000
|  6>    C       -8.67014       -1.13563       -0.00000
|  7>    C       -7.40535       -1.72956       -0.00000
|  8>    C       -6.25865       -0.93114        0.00000
|  9>    C       -6.37440        0.46265       -0.00000
| 10>    H       -9.77998        0.69886       -0.00000
| 11>    H       -9.55767       -1.75519       -0.00000
| 12>    H       -7.31389       -2.80804        0.00000
| 13>    H       -5.27940       -1.39224        0.00000
| 14>    H       -5.47561        1.06730       -0.00000
| 15>    C       -7.74415        2.54308       -0.00000
| 16>    O       -8.83107        3.09974       -0.00000
| 17>    H       -6.84357        3.14931       -0.00000
| 18> **                         ****END OF INPUT****
================================================================================

                       *****************************
                       * Geometry Optimization Run *
                       *****************************

Geometry optimization settings:
Update method            Update   .... BFGS
Choice of coordinates    CoordSys .... Z-matrix Internals
Initial Hessian          InHess   .... Almoef's Model

Convergence Tolerances:
Energy Change            TolE     ....  5.0000e-06 Eh
Max. Gradient            TolMAXG  ....  3.0000e-04 Eh/bohr
RMS Gradient             TolRMSG  ....  1.0000e-04 Eh/bohr
Max. Displacement        TolMAXD  ....  4.0000e-03 bohr
RMS Displacement         TolRMSD  ....  2.0000e-03 bohr
Strict Convergence                ....  False
------------------------------------------------------------------------------
                        ORCA OPTIMIZATION COORDINATE SETUP
------------------------------------------------------------------------------

The optimization will be done in new redundant internal coordinates
Making redundant internal coordinates   ...  (new redundants) done
Evaluating the initial hessian          ...  (Almloef) done
Evaluating the coordinates              ...  done
Calculating the B-matrix                .... done
Calculating the G-matrix                .... done
Diagonalizing the G-matrix              .... done
The first mode is                       ....   27
The number of degrees of freedom        ....   36

    -----------------------------------------------------------------
                    Redundant Internal Coordinates


    -----------------------------------------------------------------
         Definition                    Initial Value    Approx d2E/dq
    -----------------------------------------------------------------
      1. B(C   1,C   0)                  1.4070         0.586884   
      2. B(C   2,C   1)                  1.3986         0.605273   
      3. B(C   3,C   2)                  1.3973         0.608264   
      4. B(C   4,C   3)                  1.3973         0.608305   
      5. B(C   5,C   4)                  1.3986         0.605392   
      6. B(C   5,C   0)                  1.4044         0.592499   
      7. B(H   6,C   1)                  1.0829         0.369641   
      8. B(H   7,C   2)                  1.0824         0.370312   
      9. B(H   8,C   3)                  1.0824         0.370362   
     10. B(H   9,C   4)                  1.0824         0.370324   
     11. B(H  10,C   5)                  1.0832         0.369144   
     12. B(C  11,C   0)                  1.4778         0.452567   
     13. B(O  12,C  11)                  1.2212         1.040464   
     14. B(H  13,C  11)                  1.0856         0.365948   
     15. A(C   1,C   0,C  11)          121.2098         0.406369   
     16. A(C   5,C   0,C  11)          119.5643         0.407053   
     17. A(C   1,C   0,C   5)          119.2259         0.426323   
     18. A(C   0,C   1,H   6)          120.7616         0.351198   
     19. A(C   2,C   1,H   6)          118.9939         0.353035   
     20. A(C   0,C   1,C   2)          120.2446         0.427956   
     21. A(C   3,C   2,H   7)          119.9280         0.353438   
     22. A(C   1,C   2,H   7)          119.9606         0.353143   
     23. A(C   1,C   2,C   3)          120.1114         0.430712   
     24. A(C   2,C   3,C   4)          119.9972         0.431099   
     25. A(C   4,C   3,H   8)          120.0012         0.353450   
     26. A(C   2,C   3,H   8)          120.0015         0.353446   
     27. A(C   5,C   4,H   9)          119.9617         0.353157   
     28. A(C   3,C   4,H   9)          119.9371         0.353444   
     29. A(C   3,C   4,C   5)          120.1012         0.430733   
     30. A(C   0,C   5,H  10)          120.4975         0.351683   
     31. A(C   0,C   5,C   4)          120.3197         0.428702   
     32. A(C   4,C   5,H  10)          119.1829         0.352966   
     33. A(O  12,C  11,H  13)          118.9343         0.384351   
     34. A(C   0,C  11,H  13)          119.9546         0.335658   
     35. A(C   0,C  11,O  12)          121.1110         0.447311   
     36. D(H   6,C   1,C   0,C   5)    180.0000         0.023690   
     37. D(C   2,C   1,C   0,C   5)      0.0000         0.023690   
     38. D(C   2,C   1,C   0,C  11)    180.0000         0.023690   
     39. D(H   6,C   1,C   0,C  11)      0.0000         0.023690   
     40. D(C   3,C   2,C   1,C   0)      0.0000         0.025280   
     41. D(C   3,C   2,C   1,H   6)    180.0000         0.025280   
     42. D(H   7,C   2,C   1,H   6)      0.0000         0.025280   
     43. D(H   7,C   2,C   1,C   0)    180.0000         0.025280   
     44. D(H   8,C   3,C   2,H   7)      0.0000         0.025545   
     45. D(H   8,C   3,C   2,C   1)    180.0000         0.025545   
     46. D(C   4,C   3,C   2,H   7)    180.0000         0.025545   
     47. D(C   4,C   3,C   2,C   1)      0.0000         0.025545   
     48. D(H   9,C   4,C   3,C   2)    180.0000         0.025548   
     49. D(C   5,C   4,C   3,H   8)    180.0000         0.025548   
     50. D(C   5,C   4,C   3,C   2)      0.0000         0.025548   
     51. D(H   9,C   4,C   3,H   8)      0.0000         0.025548   
     52. D(H  10,C   5,C   4,H   9)      0.0000         0.025290   
     53. D(C   0,C   5,C   4,H   9)    180.0000         0.025290   
     54. D(C   0,C   5,C   4,C   3)      0.0000         0.025290   
     55. D(H  10,C   5,C   0,C  11)      0.0000         0.024169   
     56. D(H  10,C   5,C   0,C   1)    180.0000         0.024169   
     57. D(H  10,C   5,C   4,C   3)    180.0000         0.025290   
     58. D(C   4,C   5,C   0,C  11)    180.0000         0.024169   
     59. D(C   4,C   5,C   0,C   1)      0.0000         0.024169   
     60. D(H  13,C  11,C   0,C   5)      0.0000         0.013959   
     61. D(H  13,C  11,C   0,C   1)    180.0000         0.013959   
     62. D(O  12,C  11,C   0,C   5)    180.0000         0.013959   
     63. D(O  12,C  11,C   0,C   1)      0.0000         0.013959   
    -----------------------------------------------------------------

Number of atoms                         .... 14
Number of degrees of freedom            .... 63

         *************************************************************
         *                GEOMETRY OPTIMIZATION CYCLE   1            *
         *************************************************************
---------------------------------
CARTESIAN COORDINATES (ANGSTROEM)
---------------------------------
  C     -7.641270    1.068880   -0.000000
  C     -8.791000    0.257780   -0.000000
  C     -8.670140   -1.135630   -0.000000
  C     -7.405350   -1.729560   -0.000000
  C     -6.258650   -0.931140    0.000000
  C     -6.374400    0.462650   -0.000000
  H     -9.779980    0.698860   -0.000000
  H     -9.557670   -1.755190   -0.000000
  H     -7.313890   -2.808040    0.000000
  H     -5.279400   -1.392240    0.000000
  H     -5.475610    1.067300   -0.000000
  C     -7.744150    2.543080   -0.000000
  O     -8.831070    3.099740   -0.000000
  H     -6.843570    3.149310   -0.000000

----------------------------
CARTESIAN COORDINATES (A.U.)
----------------------------
  NO LB      ZA    FRAG     MASS         X           Y           Z
   0 C     6.0000    0    12.011  -14.439908    2.019890   -0.000000
   1 C     6.0000    0    12.011  -16.612582    0.487134   -0.000000
   2 C     6.0000    0    12.011  -16.384190   -2.146030   -0.000000
   3 C     6.0000    0    12.011  -13.994083   -3.268395   -0.000000
   4 C     6.0000    0    12.011  -11.827134   -1.759600    0.000000
   5 C     6.0000    0    12.011  -12.045870    0.874282   -0.000000
   6 H     1.0000    0     1.008  -18.481484    1.320654   -0.000000
   7 H     1.0000    0     1.008  -18.061379   -3.316828   -0.000000
   8 H     1.0000    0     1.008  -13.821249   -5.306427    0.000000
   9 H     1.0000    0     1.008   -9.976620   -2.630952    0.000000
  10 H     1.0000    0     1.008  -10.347403    2.016905   -0.000000
  11 C     6.0000    0    12.011  -14.634323    4.805725   -0.000000
  12 O     8.0000    0    15.999  -16.688304    5.857660   -0.000000
  13 H     1.0000    0     1.008  -12.932473    5.951333   -0.000000

--------------------------------
INTERNAL COORDINATES (ANGSTROEM)
--------------------------------
 C      0   0   0     0.000000000000     0.00000000     0.00000000
 C      1   0   0     1.407040256318     0.00000000     0.00000000
 C      2   1   0     1.398641686673   120.24457130     0.00000000
 C      3   2   1     1.397299749159   120.11142791     0.00000000
 C      4   3   2     1.397281427058   119.99724202     0.00000000
 C      5   4   3     1.398588083247   120.10123342     0.00000000
 H      2   1   3     1.082881806478   120.76155382   180.00000000
 H      3   2   1     1.082388144105   119.96057252   180.00000085
 H      4   3   2     1.082351163902   120.00152301   180.00000000
 H      5   4   3     1.082378756490   119.93705536   180.00000085
 H      6   5   4     1.083247472464   119.18286678   180.00000000
 C      1   2   3     1.477785483215   121.20979178   180.00000000
 O     12   1   2     1.221173796804   121.11102998     0.00000000
 H     12   1   2     1.085614641252   119.95464025   180.00000000

---------------------------
INTERNAL COORDINATES (A.U.)
---------------------------
 C      0   0   0     0.000000000000     0.00000000     0.00000000
 C      1   0   0     2.658920743844     0.00000000     0.00000000
 C      2   1   0     2.643049747298   120.24457130     0.00000000
 C      3   2   1     2.640513852908   120.11142791     0.00000000
 C      4   3   2     2.640479229153   119.99724202     0.00000000
 C      5   4   3     2.642948451502   120.10123342     0.00000000
 H      2   1   3     2.046350049648   120.76155382   180.00000000
 H      3   2   1     2.045417162963   119.96057252   180.00000085
 H      4   3   2     2.045347280506   120.00152301   180.00000000
 H      5   4   3     2.045399422940   119.93705536   180.00000085
 H      6   5   4     2.047041058220   119.18286678   180.00000000
 C      1   2   3     2.792609847960   121.20979178   180.00000000
 O     12   1   2     2.307684037880   121.11102998     0.00000000
 H     12   1   2     2.051514358941   119.95464025   180.00000000

---------------------
BASIS SET INFORMATION
---------------------
There are 3 groups of distinct atoms

 Group   1 Type C   : 7s4p1d contracted to 3s2p1d pattern {511/31/1}
 Group   2 Type H   : 4s1p contracted to 2s1p pattern {31/1}
 Group   3 Type O   : 7s4p1d contracted to 3s2p1d pattern {511/31/1}

Atom   0C    basis set group =>   1
Atom   1C    basis set group =>   1
Atom   2C    basis set group =>   1
Atom   3C    basis set group =>   1
Atom   4C    basis set group =>   1
Atom   5C    basis set group =>   1
Atom   6H    basis set group =>   2
Atom   7H    basis set group =>   2
Atom   8H    basis set group =>   2
Atom   9H    basis set group =>   2
Atom  10H    basis set group =>   2
Atom  11C    basis set group =>   1
Atom  12O    basis set group =>   3
Atom  13H    basis set group =>   2
---------------------------------
AUXILIARY/J BASIS SET INFORMATION
---------------------------------
There are 3 groups of distinct atoms

 Group   1 Type C   : 12s5p4d2f1g contracted to 6s4p3d1f1g pattern {711111/2111/211/2/1}
 Group   2 Type H   : 5s2p1d contracted to 3s1p1d pattern {311/2/1}
 Group   3 Type O   : 12s5p4d2f1g contracted to 6s4p3d1f1g pattern {711111/2111/211/2/1}

Atom   0C    basis set group =>   1
Atom   1C    basis set group =>   1
Atom   2C    basis set group =>   1
Atom   3C    basis set group =>   1
Atom   4C    basis set group =>   1
Atom   5C    basis set group =>   1
Atom   6H    basis set group =>   2
Atom   7H    basis set group =>   2
Atom   8H    basis set group =>   2
Atom   9H    basis set group =>   2
Atom  10H    basis set group =>   2
Atom  11C    basis set group =>   1
Atom  12O    basis set group =>   3
Atom  13H    basis set group =>   2
------------------------------------------------------------------------------
                           ORCA GTO INTEGRAL CALCULATION
                           -- RI-GTO INTEGRALS CHOSEN --
------------------------------------------------------------------------------
------------------------------------------------------------------------------
                   ___                                                        
                  /   \      - P O W E R E D   B Y -                         
                 /     \                                                     
                 |  |  |   _    _      __       _____    __    __             
                 |  |  |  | |  | |    /  \     |  _  \  |  |  /  |          
                  \  \/   | |  | |   /    \    | | | |  |  | /  /          
                 / \  \   | |__| |  /  /\  \   | |_| |  |  |/  /          
                |  |  |   |  __  | /  /__\  \  |    /   |      \           
                |  |  |   | |  | | |   __   |  |    \   |  |\   \          
                \     /   | |  | | |  |  |  |  | |\  \  |  | \   \       
                 \___/    |_|  |_| |__|  |__|  |_| \__\ |__|  \__/        
                                                                              
                      - O R C A' S   B I G   F R I E N D -                    
                                      &                                       
                       - I N T E G R A L  F E E D E R -                       
                                                                              
 v1 FN, 2020, v2 2021                                                         
------------------------------------------------------------------------------


Reading SHARK input file opt.SHARKINP.tmp ... ok
----------------------
SHARK INTEGRAL PACKAGE
----------------------

Number of atoms                             ...     14
Number of basis functions                   ...    142
Number of shells                            ...     66
Maximum angular momentum                    ...      2
Integral batch strategy                     ... SHARK/LIBINT Hybrid
RI-J (if used) integral strategy            ... SPLIT-RIJ (Revised 2003 algorithm where possible)
Printlevel                                  ...      1
Contraction scheme used                     ... SEGMENTED contraction
Coulomb Range Separation                    ... NOT USED
Exchange Range Separation                   ... NOT USED
Finite Nucleus Model                        ... NOT USED
Auxiliary Coulomb fitting basis             ... AVAILABLE
   # of basis functions in Aux-J            ...    458
   # of shells in Aux-J                     ...    150
   Maximum angular momentum in Aux-J        ...      4
Auxiliary J/K fitting basis                 ... NOT available
Auxiliary Correlation fitting basis         ... NOT available
Auxiliary 'external' fitting basis          ... NOT available
Integral threshold                          ...     2.500000e-11
Primitive cut-off                           ...     2.500000e-12
Primitive pair pre-selection threshold      ...     2.500000e-12

Calculating pre-screening integrals         ... done (  0.0 sec) Dimension = 66
Organizing shell pair data                  ... done (  0.0 sec)
Shell pair information
Total number of shell pairs                 ...      2211
Shell pairs after pre-screening             ...      2101
Total number of primitive shell pairs       ...      8123
Primitive shell pairs kept                  ...      5742
          la=0 lb=0:    629 shell pairs
          la=1 lb=0:    757 shell pairs
          la=1 lb=1:    243 shell pairs
          la=2 lb=0:    270 shell pairs
          la=2 lb=1:    168 shell pairs
          la=2 lb=2:     34 shell pairs

Calculating one electron integrals          ... done (  0.0 sec)
Calculating RI/J V-Matrix + Cholesky decomp.... done (  0.0 sec)
Calculating Nuclear repulsion               ... done (  0.0 sec) ENN=    320.658746979330 Eh

SHARK setup successfully completed in   0.2 seconds

Maximum memory used throughout the entire GTOINT-calculation: 18.5 MB
-------------------------------------------------------------------------------
                                 ORCA SCF
-------------------------------------------------------------------------------

------------
SCF SETTINGS
------------
Hamiltonian:
 Density Functional     Method          .... DFT(GTOs)
 Exchange Functional    Exchange        .... B88
   X-Alpha parameter    XAlpha          ....  0.666667
   Becke's b parameter  XBeta           ....  0.004200
 Correlation Functional Correlation     .... LYP
 LDA part of GGA corr.  LDAOpt          .... VWN-5
 Gradients option       PostSCFGGA      .... off
 Hybrid DFT is turned on
   Fraction HF Exchange ScalHFX         ....  0.200000
   Scaling of DF-GGA-X  ScalDFX         ....  0.720000
   Scaling of DF-GGA-C  ScalDFC         ....  0.810000
   Scaling of DF-LDA-C  ScalLDAC        ....  1.000000
   Perturbative correction              ....  0.000000
   Density functional embedding theory  .... OFF
   NL short-range parameter             ....  4.800000
 RI-approximation to the Coulomb term is turned on
   Number of AuxJ basis functions       .... 458
   RIJ-COSX (HFX calculated with COS-X)).... on


General Settings:
 Integral files         IntName         .... opt
 Hartree-Fock type      HFTyp           .... RHF
 Total Charge           Charge          ....    0
 Multiplicity           Mult            ....    1
 Number of Electrons    NEL             ....   56
 Basis Dimension        Dim             ....  142
 Nuclear Repulsion      ENuc            ....    320.6587469793 Eh

Convergence Acceleration:
 DIIS                   CNVDIIS         .... on
   Start iteration      DIISMaxIt       ....    12
   Startup error        DIISStart       ....  0.200000
   # of expansion vecs  DIISMaxEq       ....     5
   Bias factor          DIISBfac        ....   1.050
   Max. coefficient     DIISMaxC        ....  10.000
 Trust-Rad. Augm. Hess. CNVTRAH         .... auto
   Auto Start mean grad. ratio tolernc. ....  1.125000
   Auto Start start iteration           ....    20
   Auto Start num. interpolation iter.  ....    10
   Max. Number of Micro iterations      ....    16
   Max. Number of Macro iterations      .... Maxiter - #DIIS iter
   Number of Davidson start vectors     ....     2
   Converg. threshold I  (grad. norm)   ....   1.000e-05
   Converg. threshold II (energy diff.) ....   1.000e-08
   Grad. Scal. Fac. for Micro threshold ....   0.100
   Minimum threshold for Micro iter.    ....   0.010
   NR start threshold (gradient norm)   ....   0.001
   Initial trust radius                 ....   0.400
   Minimum AH scaling param. (alpha)    ....   1.000
   Maximum AH scaling param. (alpha)    .... 1000.000
   Orbital update algorithm             .... Taylor
   White noise on init. David. guess    .... on
   Maximum white noise                  ....   0.010
   Quad. conv. algorithm                .... NR
 SOSCF                  CNVSOSCF        .... on
   Start iteration      SOSCFMaxIt      ....   150
   Startup grad/error   SOSCFStart      ....  0.003300
 Level Shifting         CNVShift        .... on
   Level shift para.    LevelShift      ....    0.2500
   Turn off err/grad.   ShiftErr        ....    0.0010
 Zerner damping         CNVZerner       .... off
 Static damping         CNVDamp         .... on
   Fraction old density DampFac         ....    0.7000
   Max. Damping (<1)    DampMax         ....    0.9800
   Min. Damping (>=0)   DampMin         ....    0.0000
   Turn off err/grad.   DampErr         ....    0.1000
 Fernandez-Rico         CNVRico         .... off

SCF Procedure:
 Maximum # iterations   MaxIter         ....   125
 SCF integral mode      SCFMode         .... Direct
   Integral package                     .... SHARK and LIBINT hybrid scheme
 Reset frequency        DirectResetFreq ....    20
 Integral Threshold     Thresh          ....  2.500e-11 Eh
 Primitive CutOff       TCut            ....  2.500e-12 Eh

Convergence Tolerance:
 Convergence Check Mode ConvCheckMode   .... Total+1el-Energy
 Convergence forced     ConvForced      .... 0
 Energy Change          TolE            ....  1.000e-08 Eh
 1-El. energy change                    ....  1.000e-05 Eh
 Orbital Gradient       TolG            ....  1.000e-05
 Orbital Rotation angle TolX            ....  1.000e-05
 DIIS Error             TolErr          ....  5.000e-07


Diagonalization of the overlap matrix:
Smallest eigenvalue                        ... 3.067e-04
Time for diagonalization                   ...    0.008 sec
Threshold for overlap eigenvalues          ... 1.000e-08
Number of eigenvalues below threshold      ... 0
Time for construction of square roots      ...    0.004 sec
Total time needed                          ...    0.012 sec

Time for model grid setup =    0.273 sec

------------------------------
INITIAL GUESS: MODEL POTENTIAL
------------------------------
Loading Hartree-Fock densities                     ... done
Calculating cut-offs                               ... done
Initializing the effective Hamiltonian             ... done
Setting up the integral package (SHARK)            ... done
Starting the Coulomb interaction                   ... done (   0.3 sec)
Reading the grid                                   ... done
Mapping shells                                     ... done
Starting the XC term evaluation                    ... done (   0.5 sec)
  promolecular density results
     # of electrons  =     55.993516305
     EX              =    -45.925060194
     EC              =     -1.882537411
     EX+EC           =    -47.807597605
Transforming the Hamiltonian                       ... done (   0.0 sec)
Diagonalizing the Hamiltonian                      ... done (   0.0 sec)
Back transforming the eigenvectors                 ... done (   0.0 sec)
Now organizing SCF variables                       ... done
                      ------------------
                      INITIAL GUESS DONE (   1.1 sec)
                      ------------------
-------------------
DFT GRID GENERATION
-------------------

General Integration Accuracy     IntAcc      ... 4.388
Radial Grid Type                 RadialGrid  ... OptM3 with GC (2021)
Angular Grid (max. ang.)         AngularGrid ... 4 (Lebedev-302)
Angular grid pruning method      GridPruning ... 4 (adaptive)
Weight generation scheme         WeightScheme... Becke
Basis function cutoff            BFCut       ... 1.0000e-11
Integration weight cutoff        WCut        ... 1.0000e-14
Angular grids for H and He will be reduced by one unit
Partially contracted basis set               ... off
Rotationally invariant grid construction     ... off

Total number of grid points                  ...    67540
Total number of batches                      ...     1061
Average number of points per batch           ...       63
Average number of grid points per atom       ...     4824
Time for grid setup =    2.182 sec

--------------------
COSX GRID GENERATION
--------------------

GRIDX 1
-------
General Integration Accuracy     IntAcc      ... 3.816
Radial Grid Type                 RadialGrid  ... OptM3 with GC (2021)
Angular Grid (max. ang.)         AngularGrid ... 1 (Lebedev-50)
Angular grid pruning method      GridPruning ... 4 (adaptive)
Weight generation scheme         WeightScheme... Becke
Basis function cutoff            BFCut       ... 1.0000e-11
Integration weight cutoff        WCut        ... 1.0000e-14
Angular grids for H and He will be reduced by one unit
Partially contracted basis set               ... on
Rotationally invariant grid construction     ... off

Total number of grid points                  ...     8636
Total number of batches                      ...      140
Average number of points per batch           ...       61
Average number of grid points per atom       ...      617
UseSFitting                                  ... on

GRIDX 2
-------
General Integration Accuracy     IntAcc      ... 4.020
Radial Grid Type                 RadialGrid  ... OptM3 with GC (2021)
Angular Grid (max. ang.)         AngularGrid ... 2 (Lebedev-110)
Angular grid pruning method      GridPruning ... 4 (adaptive)
Weight generation scheme         WeightScheme... Becke
Basis function cutoff            BFCut       ... 1.0000e-11
Integration weight cutoff        WCut        ... 1.0000e-14
Angular grids for H and He will be reduced by one unit
Partially contracted basis set               ... on
Rotationally invariant grid construction     ... off

Total number of grid points                  ...    19033
Total number of batches                      ...      305
Average number of points per batch           ...       62
Average number of grid points per atom       ...     1360
UseSFitting                                  ... on

GRIDX 3
-------
General Integration Accuracy     IntAcc      ... 4.338
Radial Grid Type                 RadialGrid  ... OptM3 with GC (2021)
Angular Grid (max. ang.)         AngularGrid ... 3 (Lebedev-194)
Angular grid pruning method      GridPruning ... 4 (adaptive)
Weight generation scheme         WeightScheme... Becke
Basis function cutoff            BFCut       ... 1.0000e-11
Integration weight cutoff        WCut        ... 1.0000e-14
Angular grids for H and He will be reduced by one unit
Partially contracted basis set               ... on
Rotationally invariant grid construction     ... off

Total number of grid points                  ...    41929
Total number of batches                      ...      664
Average number of points per batch           ...       63
Average number of grid points per atom       ...     2995
UseSFitting                                  ... on

Time for X-Grid setup             =    3.074 sec

--------------
SCF ITERATIONS
--------------
ITER       Energy         Delta-E        Max-DP      RMS-DP      [F,P]     Damp
               ***  Starting incremental Fock matrix formation  ***
  0   -344.9328902862   0.000000000000 0.11353941  0.00344837  0.2473359 0.7000
  1   -345.0180432348  -0.085152948596 0.06701451  0.00223764  0.0946772 0.7000
                               ***Turning on DIIS***
  2   -345.0500607684  -0.032017533574 0.05838155  0.00344667  0.0314961 0.0000
  3   -345.1050059625  -0.054945194065 0.06341447  0.00151186  0.0458104 0.0000
  4   -345.1143891580  -0.009383195592 0.01350212  0.00041657  0.0240062 0.0000
  5   -345.1154714555  -0.001082297482 0.00632141  0.00014573  0.0043721 0.0000
                      *** Initiating the SOSCF procedure ***
                           *** Shutting down DIIS ***
                      *** Re-Reading the Fockian *** 
                      *** Removing any level shift *** 
ITER      Energy       Delta-E        Grad      Rot      Max-DP    RMS-DP
  6   -345.11551544  -0.0000439815  0.000236  0.000236  0.001735  0.000070
               *** Restarting incremental Fock matrix formation ***
  7   -345.11553929  -0.0000238536  0.000171  0.000860  0.000695  0.000033
  8   -345.11553844   0.0000008480  0.000323  0.000603  0.000614  0.000018
  9   -345.11553992  -0.0000014780  0.000043  0.000114  0.000279  0.000005
 10   -345.11553987   0.0000000459  0.000071  0.000079  0.000158  0.000003
 11   -345.11553995  -0.0000000789  0.000011  0.000037  0.000080  0.000002
 12   -345.11553995   0.0000000027  0.000021  0.000025  0.000050  0.000001
                  ***Gradient check signals convergence***
              ***Rediagonalizing the Fockian in SOSCF/NRSCF***

               *****************************************************
               *                     SUCCESS                       *
               *           SCF CONVERGED AFTER  13 CYCLES          *
               *****************************************************

Old exchange energy                            =     -9.308974274 Eh
New exchange energy                            =     -9.309017061 Eh
Exchange energy change after final integration =     -0.000042788 Eh
Total energy after final integration           =   -345.115582745 Eh
Final COS-X integration done in                =    19.158 sec

----------------
TOTAL SCF ENERGY
----------------

Total Energy       :         -345.11558275 Eh           -9391.07244 eV

Components:
Nuclear Repulsion  :          320.65874698 Eh            8725.56810 eV
Electronic Energy  :         -665.77432972 Eh          -18116.64054 eV
One Electron Energy:        -1101.53875072 Eh          -29974.39328 eV
Two Electron Energy:          435.76442100 Eh           11857.75273 eV
Max COSX asymmetry :            0.00000255 Eh               0.00007 eV

Virial components:
Potential Energy   :         -686.90240043 Eh          -18691.56458 eV
Kinetic Energy     :          341.78681769 Eh            9300.49214 eV
Virial Ratio       :            2.00973930


DFT components:
N(Alpha)           :       27.999998131815 electrons
N(Beta)            :       27.999998131815 electrons
N(Total)           :       55.999996263630 electrons
E(X)               :      -36.991569461285 Eh       
E(C)               :       -2.225999093027 Eh       
E(XC)              :      -39.217568554313 Eh       
DFET-embed. en.    :        0.000000000000 Eh       

---------------
SCF CONVERGENCE
---------------

  Last Energy change         ...   -6.2909e-09  Tolerance :   1.0000e-08
  Last MAX-Density change    ...    3.1086e-15  Tolerance :   1.0000e-07
  Last RMS-Density change    ...    4.6443e-17  Tolerance :   5.0000e-09
  Last Orbital Gradient      ...    1.1172e-06  Tolerance :   1.0000e-05
  Last Orbital Rotation      ...    3.6207e-06  Tolerance :   1.0000e-05

             **** THE GBW FILE WAS UPDATED (opt.gbw) ****
             **** DENSITY opt.scfp WAS UPDATED ****
             **** ENERGY FILE WAS UPDATED (opt.en.tmp) ****
             **** THE GBW FILE WAS UPDATED (opt.gbw) ****
             **** DENSITY opt.scfp WAS UPDATED ****
----------------
ORBITAL ENERGIES
----------------

  NO   OCC          E(Eh)            E(eV) 
   0   2.0000     -19.125014      -520.4181 
   1   2.0000     -10.269489      -279.4470 
   2   2.0000     -10.207625      -277.7636 
   3   2.0000     -10.205862      -277.7156 
   4   2.0000     -10.203302      -277.6460 
   5   2.0000     -10.202866      -277.6341 
   6   2.0000     -10.202793      -277.6321 
   7   2.0000     -10.201695      -277.6022 
   8   2.0000      -1.024524       -27.8787 
   9   2.0000      -0.861303       -23.4372 
  10   2.0000      -0.765286       -20.8245 
  11   2.0000      -0.751169       -20.4404 
  12   2.0000      -0.648374       -17.6432 
  13   2.0000      -0.614566       -16.7232 
  14   2.0000      -0.573429       -15.6038 
  15   2.0000      -0.528136       -14.3713 
  16   2.0000      -0.486421       -13.2362 
  17   2.0000      -0.462826       -12.5941 
  18   2.0000      -0.446019       -12.1368 
  19   2.0000      -0.434127       -11.8132 
  20   2.0000      -0.423131       -11.5140 
  21   2.0000      -0.407973       -11.1015 
  22   2.0000      -0.370405       -10.0792 
  23   2.0000      -0.365826        -9.9546 
  24   2.0000      -0.357944        -9.7401 
  25   2.0000      -0.270336        -7.3562 
  26   2.0000      -0.266703        -7.2574 
  27   2.0000      -0.256372        -6.9762 
  28   0.0000      -0.067813        -1.8453 
  29   0.0000      -0.021575        -0.5871 
  30   0.0000       0.032184         0.8758 
  31   0.0000       0.059948         1.6313 
  32   0.0000       0.082601         2.2477 
  33   0.0000       0.108788         2.9603 
  34   0.0000       0.116778         3.1777 
  35   0.0000       0.143201         3.8967 
  36   0.0000       0.148537         4.0419 
  37   0.0000       0.152132         4.1397 
  38   0.0000       0.229809         6.2534 
  39   0.0000       0.257049         6.9947 
  40   0.0000       0.281686         7.6651 
  41   0.0000       0.294250         8.0070 
  42   0.0000       0.296601         8.0709 
  43   0.0000       0.318418         8.6646 
  44   0.0000       0.350170         9.5286 
  45   0.0000       0.381265        10.3747 
  46   0.0000       0.409004        11.1296 
  47   0.0000       0.425842        11.5878 
  48   0.0000       0.445495        12.1225 
  49   0.0000       0.447308        12.1719 
  50   0.0000       0.461261        12.5516 
  51   0.0000       0.482074        13.1179 
  52   0.0000       0.487803        13.2738 
  53   0.0000       0.499295        13.5865 
  54   0.0000       0.521649        14.1948 
  55   0.0000       0.526782        14.3345 
  56   0.0000       0.567510        15.4427 
  57   0.0000       0.588919        16.0253 
  58   0.0000       0.617659        16.8073 
  59   0.0000       0.627332        17.0706 
  60   0.0000       0.633076        17.2269 
  61   0.0000       0.640127        17.4187 
  62   0.0000       0.661168        17.9913 
  63   0.0000       0.666553        18.1378 
  64   0.0000       0.677218        18.4280 
  65   0.0000       0.688121        18.7247 
  66   0.0000       0.709460        19.3054 
  67   0.0000       0.727972        19.8091 
  68   0.0000       0.731356        19.9012 
  69   0.0000       0.748957        20.3801 
  70   0.0000       0.778473        21.1833 
  71   0.0000       0.801749        21.8167 
  72   0.0000       0.842394        22.9227 
  73   0.0000       0.877934        23.8898 
  74   0.0000       0.915229        24.9047 
  75   0.0000       1.019776        27.7495 
  76   0.0000       1.030854        28.0510 
  77   0.0000       1.056579        28.7510 
  78   0.0000       1.145671        31.1753 
  79   0.0000       1.152823        31.3699 
  80   0.0000       1.187800        32.3217 
  81   0.0000       1.228116        33.4187 
  82   0.0000       1.236456        33.6457 
  83   0.0000       1.236809        33.6553 
  84   0.0000       1.261553        34.3286 
  85   0.0000       1.281786        34.8792 
  86   0.0000       1.290563        35.1180 
  87   0.0000       1.296558        35.2811 
  88   0.0000       1.426631        38.8206 
  89   0.0000       1.453786        39.5595 
  90   0.0000       1.498868        40.7863 
  91   0.0000       1.611615        43.8543 
  92   0.0000       1.648179        44.8492 
  93   0.0000       1.659874        45.1675 
  94   0.0000       1.696438        46.1624 
  95   0.0000       1.714361        46.6501 
  96   0.0000       1.740151        47.3519 
  97   0.0000       1.746910        47.5358 
  98   0.0000       1.749464        47.6053 
  99   0.0000       1.752189        47.6795 
 100   0.0000       1.774511        48.2869 
 101   0.0000       1.793605        48.8065 
 102   0.0000       1.836597        49.9763 
 103   0.0000       1.863507        50.7086 
 104   0.0000       1.911007        52.0011 
 105   0.0000       1.948116        53.0109 
 106   0.0000       1.966164        53.5021 
 107   0.0000       1.977514        53.8109 
 108   0.0000       1.982736        53.9530 
 109   0.0000       1.990486        54.1639 
 110   0.0000       2.069441        56.3124 
 111   0.0000       2.089548        56.8595 
 112   0.0000       2.114497        57.5384 
 113   0.0000       2.124554        57.8120 
 114   0.0000       2.138111        58.1810 
 115   0.0000       2.253557        61.3224 
 116   0.0000       2.278299        61.9957 
 117   0.0000       2.286531        62.2197 
 118   0.0000       2.288327        62.2685 
 119   0.0000       2.336731        63.5857 
 120   0.0000       2.340751        63.6951 
 121   0.0000       2.443534        66.4919 
 122   0.0000       2.469748        67.2053 
 123   0.0000       2.534418        68.9650 
 124   0.0000       2.565949        69.8230 
 125   0.0000       2.607587        70.9561 
 126   0.0000       2.626204        71.4627 
 127   0.0000       2.659651        72.3728 
 128   0.0000       2.721611        74.0588 
 129   0.0000       2.728189        74.2378 
 130   0.0000       2.732605        74.3580 
 131   0.0000       2.783337        75.7384 
 132   0.0000       2.857199        77.7483 
 133   0.0000       2.874302        78.2137 
 134   0.0000       2.956682        80.4554 
 135   0.0000       3.052264        83.0563 
 136   0.0000       3.118688        84.8638 
 137   0.0000       3.130630        85.1888 
 138   0.0000       3.214582        87.4732 
 139   0.0000       3.439876        93.6038 
 140   0.0000       3.610767        98.2540 
 141   0.0000       3.640461        99.0620 

                    ********************************
                    * MULLIKEN POPULATION ANALYSIS *
                    ********************************

-----------------------
MULLIKEN ATOMIC CHARGES
-----------------------
   0 C :    0.006526
   1 C :    0.021557
   2 C :    0.025674
   3 C :    0.037435
   4 C :    0.026011
   5 C :    0.008915
   6 H :   -0.006665
   7 H :   -0.012492
   8 H :   -0.011537
   9 H :   -0.015649
  10 H :   -0.021502
  11 C :    0.178293
  12 O :   -0.208965
  13 H :   -0.027599
Sum of atomic charges:   -0.0000000

--------------------------------
MULLIKEN REDUCED ORBITAL CHARGES
--------------------------------
  0 C s       :     3.075881  s :     3.075881
      pz      :     1.012082  p :     2.878663
      px      :     0.952458
      py      :     0.914123
      dz2     :     0.003065  d :     0.038930
      dxz     :     0.006420
      dyz     :     0.003514
      dx2y2   :     0.014378
      dxy     :     0.011554
  1 C s       :     3.235223  s :     3.235223
      pz      :     0.930348  p :     2.709211
      px      :     0.875189
      py      :     0.903674
      dz2     :     0.002509  d :     0.034009
      dxz     :     0.002972
      dyz     :     0.005564
      dx2y2   :     0.011037
      dxy     :     0.011928
  2 C s       :     3.160682  s :     3.160682
      pz      :     0.982789  p :     2.778912
      px      :     0.874326
      py      :     0.921797
      dz2     :     0.002485  d :     0.034732
      dxz     :     0.003528
      dyz     :     0.004681
      dx2y2   :     0.010925
      dxy     :     0.013113
  3 C s       :     3.160319  s :     3.160319
      pz      :     0.956554  p :     2.767034
      px      :     0.965890
      py      :     0.844591
      dz2     :     0.002485  d :     0.035212
      dxz     :     0.006340
      dyz     :     0.002370
      dx2y2   :     0.013266
      dxy     :     0.010751
  4 C s       :     3.157321  s :     3.157321
      pz      :     0.985502  p :     2.782063
      px      :     0.859389
      py      :     0.937171
      dz2     :     0.002492  d :     0.034605
      dxz     :     0.003000
      dyz     :     0.005220
      dx2y2   :     0.011700
      dxy     :     0.012193
  5 C s       :     3.212328  s :     3.212328
      pz      :     0.963555  p :     2.744374
      px      :     0.880642
      py      :     0.900177
      dz2     :     0.002539  d :     0.034383
      dxz     :     0.003508
      dyz     :     0.005205
      dx2y2   :     0.010446
      dxy     :     0.012685
  6 H s       :     0.983183  s :     0.983183
      pz      :     0.004343  p :     0.023482
      px      :     0.013214
      py      :     0.005925
  7 H s       :     0.989337  s :     0.989337
      pz      :     0.004674  p :     0.023155
      px      :     0.011292
      py      :     0.007188
  8 H s       :     0.988445  s :     0.988445
      pz      :     0.004570  p :     0.023092
      px      :     0.003498
      py      :     0.015024
  9 H s       :     0.992426  s :     0.992426
      pz      :     0.004771  p :     0.023223
      px      :     0.012920
      py      :     0.005532
 10 H s       :     0.998223  s :     0.998223
      pz      :     0.004694  p :     0.023280
      px      :     0.011545
      py      :     0.007042
 11 C s       :     3.167747  s :     3.167747
      pz      :     0.782492  p :     2.569458
      px      :     0.880391
      py      :     0.906575
      dz2     :     0.004412  d :     0.084502
      dxz     :     0.011499
      dyz     :     0.007408
      dx2y2   :     0.032433
      dxy     :     0.028750
 12 O s       :     3.756825  s :     3.756825
      pz      :     1.284144  p :     4.434432
      px      :     1.421721
      py      :     1.728568
      dz2     :     0.001915  d :     0.017708
      dxz     :     0.004494
      dyz     :     0.001238
      dx2y2   :     0.004660
      dxy     :     0.005401
 13 H s       :     1.007753  s :     1.007753
      pz      :     0.002523  p :     0.019846
      px      :     0.010224
      py      :     0.007099


                     *******************************
                     * LOEWDIN POPULATION ANALYSIS *
                     *******************************

----------------------
LOEWDIN ATOMIC CHARGES
----------------------
   0 C :   -0.078642
   1 C :    0.020090
   2 C :   -0.018812
   3 C :   -0.003340
   4 C :   -0.022147
   5 C :   -0.001917
   6 H :    0.032991
   7 H :    0.028715
   8 H :    0.028511
   9 H :    0.027385
  10 H :    0.026237
  11 C :    0.115983
  12 O :   -0.148883
  13 H :   -0.006173

-------------------------------
LOEWDIN REDUCED ORBITAL CHARGES
-------------------------------
  0 C s       :     2.867313  s :     2.867313
      pz      :     0.985702  p :     3.106533
      px      :     1.072920
      py      :     1.047911
      dz2     :     0.008236  d :     0.104796
      dxz     :     0.013391
      dyz     :     0.007042
      dx2y2   :     0.041242
      dxy     :     0.034885
  1 C s       :     2.862768  s :     2.862768
      pz      :     0.923320  p :     3.028774
      px      :     1.050394
      py      :     1.055060
      dz2     :     0.006010  d :     0.088368
      dxz     :     0.005571
      dyz     :     0.011479
      dx2y2   :     0.031781
      dxy     :     0.033527
  2 C s       :     2.860230  s :     2.860230
      pz      :     0.962522  p :     3.068486
      px      :     1.048056
      py      :     1.057908
      dz2     :     0.006139  d :     0.090095
      dxz     :     0.006803
      dyz     :     0.009548
      dx2y2   :     0.031312
      dxy     :     0.036293
  3 C s       :     2.862694  s :     2.862694
      pz      :     0.938251  p :     3.049918
      px      :     1.069813
      py      :     1.041854
      dz2     :     0.006153  d :     0.090727
      dxz     :     0.013513
      dyz     :     0.003998
      dx2y2   :     0.036257
      dxy     :     0.030806
  4 C s       :     2.859700  s :     2.859700
      pz      :     0.968002  p :     3.072371
      px      :     1.044904
      py      :     1.059466
      dz2     :     0.006183  d :     0.090076
      dxz     :     0.005518
      dyz     :     0.011103
      dx2y2   :     0.033086
      dxy     :     0.034185
  5 C s       :     2.861772  s :     2.861772
      pz      :     0.946977  p :     3.050181
      px      :     1.046063
      py      :     1.057141
      dz2     :     0.006092  d :     0.089964
      dxz     :     0.006953
      dyz     :     0.010660
      dx2y2   :     0.030423
      dxy     :     0.035836
  6 H s       :     0.896079  s :     0.896079
      pz      :     0.013356  p :     0.070930
      px      :     0.039002
      py      :     0.018572
  7 H s       :     0.902886  s :     0.902886
      pz      :     0.014366  p :     0.068398
      px      :     0.032553
      py      :     0.021479
  8 H s       :     0.903144  s :     0.903144
      pz      :     0.013944  p :     0.068345
      px      :     0.011757
      py      :     0.042644
  9 H s       :     0.904082  s :     0.904082
      pz      :     0.014570  p :     0.068533
      px      :     0.036913
      py      :     0.017050
 10 H s       :     0.904498  s :     0.904498
      pz      :     0.014332  p :     0.069264
      px      :     0.033483
      py      :     0.021450
 11 C s       :     2.885675  s :     2.885675
      pz      :     0.770434  p :     2.800896
      px      :     1.006810
      py      :     1.023652
      dz2     :     0.011099  d :     0.197445
      dxz     :     0.020090
      dyz     :     0.014159
      dx2y2   :     0.082899
      dxy     :     0.069198
 12 O s       :     3.557875  s :     3.557875
      pz      :     1.278299  p :     4.561101
      px      :     1.540583
      py      :     1.742219
      dz2     :     0.004113  d :     0.029907
      dxz     :     0.005380
      dyz     :     0.001468
      dx2y2   :     0.008335
      dxy     :     0.010611
 13 H s       :     0.938040  s :     0.938040
      pz      :     0.009250  p :     0.068133
      px      :     0.036077
      py      :     0.022806


                      *****************************
                      * MAYER POPULATION ANALYSIS *
                      *****************************

  NA   - Mulliken gross atomic population
  ZA   - Total nuclear charge
  QA   - Mulliken gross atomic charge
  VA   - Mayer's total valence
  BVA  - Mayer's bonded valence
  FA   - Mayer's free valence

  ATOM       NA         ZA         QA         VA         BVA        FA
  0 C      5.9935     6.0000     0.0065     3.6711     3.6711    -0.0000
  1 C      5.9784     6.0000     0.0216     3.8607     3.8607    -0.0000
  2 C      5.9743     6.0000     0.0257     3.8296     3.8296    -0.0000
  3 C      5.9626     6.0000     0.0374     3.8314     3.8314     0.0000
  4 C      5.9740     6.0000     0.0260     3.8526     3.8526    -0.0000
  5 C      5.9911     6.0000     0.0089     3.8223     3.8223    -0.0000
  6 H      1.0067     1.0000    -0.0067     1.0074     1.0074     0.0000
  7 H      1.0125     1.0000    -0.0125     0.9787     0.9787    -0.0000
  8 H      1.0115     1.0000    -0.0115     0.9778     0.9778     0.0000
  9 H      1.0156     1.0000    -0.0156     0.9781     0.9781     0.0000
 10 H      1.0215     1.0000    -0.0215     0.9860     0.9860     0.0000
 11 C      5.8217     6.0000     0.1783     4.0674     4.0674    -0.0000
 12 O      8.2090     8.0000    -0.2090     2.2531     2.2531    -0.0000
 13 H      1.0276     1.0000    -0.0276     0.9803     0.9803     0.0000

  Mayer bond orders larger than 0.100000
B(  0-C ,  1-C ) :   1.3453 B(  0-C ,  5-C ) :   1.3327 B(  0-C , 11-C ) :   0.9804 
B(  1-C ,  2-C ) :   1.3959 B(  1-C ,  6-H ) :   0.9903 B(  2-C ,  3-C ) :   1.3628 
B(  2-C ,  7-H ) :   0.9884 B(  3-C ,  4-C ) :   1.3878 B(  3-C ,  8-H ) :   0.9871 
B(  4-C ,  5-C ) :   1.3871 B(  4-C ,  9-H ) :   0.9860 B(  5-C , 10-H ) :   0.9896 
B( 11-C , 12-O ) :   2.1235 B( 11-C , 13-H ) :   0.9601 

-------
TIMINGS
-------

Total SCF time: 0 days 0 hours 2 min 28 sec 

Total time                  ....     148.427 sec
Sum of individual times     ....     147.701 sec  ( 99.5%)

Fock matrix formation       ....     141.015 sec  ( 95.0%)
  Split-RI-J                ....       9.850 sec  (  7.0% of F)
  Chain of spheres X        ....     106.812 sec  ( 75.7% of F)
  XC integration            ....      24.189 sec  ( 17.2% of F)
    Basis function eval.    ....       9.473 sec  ( 39.2% of XC)
    Density eval.           ....       6.525 sec  ( 27.0% of XC)
    XC-Functional eval.     ....       1.748 sec  (  7.2% of XC)
    XC-Potential eval.      ....       5.174 sec  ( 21.4% of XC)
Diagonalization             ....       0.045 sec  (  0.0%)
Density matrix formation    ....       0.006 sec  (  0.0%)
Population analysis         ....       0.056 sec  (  0.0%)
Initial guess               ....       0.832 sec  (  0.6%)
Orbital Transformation      ....       0.000 sec  (  0.0%)
Orbital Orthonormalization  ....       0.000 sec  (  0.0%)
DIIS solution               ....       0.143 sec  (  0.1%)
SOSCF solution              ....       0.075 sec  (  0.1%)
Grid generation             ....       5.529 sec  (  3.7%)

Maximum memory used throughout the entire SCF-calculation: 65.3 MB


-------------------------------------------------------------------------------
                          DFT DISPERSION CORRECTION                            
                                                                               
                                 DFTD4 V2.5                                    
-------------------------------------------------------------------------------
The B3LYP functional is recognized
Active option DFTDOPT                   ...         5   

Starting D4
-------------------------   ----------------
Dispersion correction           -0.022371038
-------------------------   ----------------


-------------------------   --------------------
FINAL SINGLE POINT ENERGY      -345.137953783411
-------------------------   --------------------

------------------------------------------------------------------------------
                         ORCA SCF GRADIENT CALCULATION
------------------------------------------------------------------------------

 ... reading COSX grid (gridx3)
Gradient of the Kohn-Sham DFT energy:
Kohn-Sham wavefunction type      ... RKS
Hartree-Fock exchange scaling    ...    0.200
Number of operators              ...    1
Number of atoms                  ...   14
Basis set dimensions             ...  142
Integral neglect threshold       ... 2.5e-11
Integral primitive cutoff        ... 2.5e-12
SHARK Integral package           ... ON

Nuc. rep. gradient       (SHARK) ... done (  0.0 sec)
HCore & Overlap gradient (SHARK) ... done (  0.4 sec)
RI-J gradient            (SHARK) ... done (  3.4 sec)
COSX-gradient                    ... done ( 38.5 sec)
Exchange-correlation gradient    ... done
Dispersion correction            ... Starting D4


------------------- 
Dispersion Gradient 
------------------- 
   1  :   -0.000013961    0.000297152    0.000000000
   2  :   -0.000411929   -0.000077226    0.000000000
   3  :   -0.000372952   -0.000445448    0.000000000
   4  :    0.000043399   -0.000510196    0.000000000
   5  :    0.000446140   -0.000339486    0.000000000
   6  :    0.000493991    0.000011602    0.000000000
   7  :   -0.000197347    0.000033820    0.000000000
   8  :   -0.000149792   -0.000117693    0.000000000
   9  :    0.000014593   -0.000177782    0.000000000
  10  :    0.000165010   -0.000087948    0.000000000
  11  :    0.000206618    0.000056888    0.000000000
  12  :   -0.000012278    0.000645167    0.000000000
  13  :   -0.000210038    0.000530830    0.000000000
  14  :   -0.000001455    0.000180321    0.000000000

  |G| =    0.001544730

done

------------------
CARTESIAN GRADIENT
------------------

   1   C   :   -0.010827314    0.003820465    0.000000001
   2   C   :   -0.003172841    0.008141376    0.000000002
   3   C   :   -0.005172526   -0.009754987    0.000000007
   4   C   :   -0.001343908   -0.006797439   -0.000000003
   5   C   :    0.004876543   -0.004443112   -0.000000003
   6   C   :    0.005671483    0.008985309   -0.000000000
   7   H   :    0.003717918   -0.007054023    0.000000002
   8   H   :    0.006291219    0.003730089   -0.000000002
   9   H   :   -0.000850477    0.007592479   -0.000000000
  10   H   :   -0.006760953    0.003038487    0.000000001
  11   H   :   -0.005156150   -0.005862064    0.000000001
  12   C   :    0.044356142    0.003697596    0.000000004
  13   O   :   -0.010174169   -0.000137338    0.000000002
  14   H   :   -0.021322585   -0.004872304    0.000000000

Difference to translation invariance:
           :    0.0001323831    0.0000845338    0.0000000122

Difference to rotation invariance:
           :    0.0000000461    0.0000002021   -0.0026246126

Norm of the cartesian gradient     ...    0.0582144823
RMS gradient                       ...    0.0089826896
MAX gradient                       ...    0.0443561419

-------
TIMINGS
-------

Total SCF gradient time            ...       59.702 sec

One electron gradient       ....       0.419 sec  (  0.7%)
RI-J Coulomb gradient       ....       3.384 sec  (  5.7%)
COSX gradient               ....      38.540 sec  ( 64.6%)
XC gradient                 ....      15.404 sec  ( 25.8%)

Maximum memory used throughout the entire SCFGRAD-calculation: 52.1 MB
------------------------------------------------------------------------------
                         ORCA GEOMETRY RELAXATION STEP
------------------------------------------------------------------------------

Reading the OPT-File                    .... done
Getting information on internals        .... done
Copying old internal coords+grads       .... done
Making the new internal coordinates     .... (new redundants).... done
Validating the new internal coordinates .... (new redundants).... done
Calculating the B-matrix                .... done
Calculating the G,G- and P matrices     .... done
Transforming gradient to internals      .... done
Projecting the internal gradient        .... done
Number of atoms                         ....  14
Number of internal coordinates          ....  63
Current Energy                          ....  -345.137953783 Eh
Current gradient norm                   ....     0.058214482 Eh/bohr
Maximum allowed component of the step   ....  0.300
Current trust radius                    ....  0.300
Evaluating the initial hessian          ....  (Almloef) done
Projecting the Hessian                  .... done
Forming the augmented Hessian           .... done
Diagonalizing the augmented Hessian     .... done
Last element of RFO vector              ....  0.995770613
Lowest eigenvalues of augmented Hessian:
 -0.003278710  0.013958732  0.013958732  0.020903805  0.024080907
Length of the computed step             ....  0.092264516
The final length of the internal step   ....  0.092264516
Converting the step to cartesian space:
 Initial RMS(Int)=    0.0116242364
Transforming coordinates:
 Iter   0:  RMS(Cart)=    0.0139453924 RMS(Int)=    2.0944274098
 Iter   1:  RMS(Cart)=    0.0002981516 RMS(Int)=    0.0001839443
 Iter   2:  RMS(Cart)=    0.0000067758 RMS(Int)=    0.0000056705
 Iter   3:  RMS(Cart)=    0.0000001196 RMS(Int)=    0.0000000956
 Iter   4:  RMS(Cart)=    0.0000000053 RMS(Int)=    0.0000000034
done
Storing new coordinates                 .... done

                                .--------------------.
          ----------------------|Geometry convergence|-------------------------
          Item                value                   Tolerance       Converged
          ---------------------------------------------------------------------
          RMS gradient        0.0045536661            0.0001000000      NO
          MAX gradient        0.0204406588            0.0003000000      NO
          RMS step            0.0116242364            0.0020000000      NO
          MAX step            0.0553606878            0.0040000000      NO
          ........................................................
          Max(Bonds)      0.0293      Max(Angles)    2.23
          Max(Dihed)        0.00      Max(Improp)    0.00
          ---------------------------------------------------------------------

The optimization has not yet converged - more geometry cycles are needed


    ---------------------------------------------------------------------------
                         Redundant Internal Coordinates
                            (Angstroem and degrees)

        Definition                    Value    dE/dq     Step     New-Value
    ----------------------------------------------------------------------------
     1. B(C   1,C   0)                1.4070  0.003669 -0.0034    1.4036   
     2. B(C   2,C   1)                1.3986  0.004268 -0.0038    1.3949   
     3. B(C   3,C   2)                1.3973 -0.004012  0.0035    1.4008   
     4. B(C   4,C   3)                1.3973 -0.000816  0.0008    1.3981   
     5. B(C   5,C   4)                1.3986  0.002120 -0.0018    1.3968   
     6. B(C   5,C   0)                1.4044 -0.000298  0.0002    1.4046   
     7. B(H   6,C   1)                1.0829 -0.006267  0.0089    1.0918   
     8. B(H   7,C   2)                1.0824 -0.007287  0.0103    1.0927   
     9. B(H   8,C   3)                1.0824 -0.007632  0.0108    1.0932   
    10. B(H   9,C   4)                1.0824 -0.007413  0.0105    1.0929   
    11. B(H  10,C   5)                1.0832 -0.007557  0.0107    1.0940   
    12. B(C  11,C   0)                1.4778 -0.002222  0.0026    1.4804   
    13. B(O  12,C  11)                1.2212  0.009019 -0.0046    1.2166   
    14. B(H  13,C  11)                1.0856 -0.020441  0.0293    1.1149   
    15. A(C   1,C   0,C  11)          121.21  0.005260   -0.72    120.49   
    16. A(C   5,C   0,C  11)          119.56 -0.002753    0.40    119.97   
    17. A(C   1,C   0,C   5)          119.23 -0.002507    0.31    119.54   
    18. A(C   0,C   1,H   6)          120.76  0.004508   -0.73    120.04   
    19. A(C   2,C   1,H   6)          118.99 -0.005641    0.91    119.90   
    20. A(C   0,C   1,C   2)          120.24  0.001133   -0.18    120.06   
    21. A(C   3,C   2,H   7)          119.93 -0.000438    0.07    120.00   
    22. A(C   1,C   2,H   7)          119.96  0.000726   -0.12    119.84   
    23. A(C   1,C   2,C   3)          120.11 -0.000288    0.05    120.16   
    24. A(C   2,C   3,C   4)          120.00 -0.000306    0.08    120.07   
    25. A(C   4,C   3,H   8)          120.00  0.000343   -0.07    119.93   
    26. A(C   2,C   3,H   8)          120.00 -0.000037   -0.01    119.99   
    27. A(C   5,C   4,H   9)          119.96 -0.000959    0.12    120.08   
    28. A(C   3,C   4,H   9)          119.94 -0.001192    0.16    120.09   
    29. A(C   3,C   4,C   5)          120.10  0.002151   -0.27    119.83   
    30. A(C   0,C   5,H  10)          120.50  0.002101   -0.34    120.16   
    31. A(C   0,C   5,C   4)          120.32 -0.000182    0.02    120.34   
    32. A(C   4,C   5,H  10)          119.18 -0.001918    0.31    119.50   
    33. A(O  12,C  11,H  13)          118.93 -0.001706    0.44    119.38   
    34. A(C   0,C  11,H  13)          119.95  0.014476   -2.23    117.73   
    35. A(C   0,C  11,O  12)          121.11 -0.012769    1.79    122.90   
    36. D(H   6,C   1,C   0,C   5)    180.00  0.000000   -0.00    180.00   
    37. D(C   2,C   1,C   0,C   5)      0.00 -0.000000    0.00      0.00   
    38. D(C   2,C   1,C   0,C  11)    180.00 -0.000000    0.00    180.00   
    39. D(H   6,C   1,C   0,C  11)      0.00 -0.000000    0.00      0.00   
    40. D(C   3,C   2,C   1,C   0)      0.00 -0.000000    0.00      0.00   
    41. D(C   3,C   2,C   1,H   6)    180.00 -0.000000    0.00    180.00   
    42. D(H   7,C   2,C   1,H   6)      0.00  0.000000   -0.00     -0.00   
    43. D(H   7,C   2,C   1,C   0)    180.00  0.000000   -0.00    180.00   
    44. D(H   8,C   3,C   2,H   7)      0.00 -0.000000    0.00      0.00   
    45. D(H   8,C   3,C   2,C   1)    180.00 -0.000000    0.00    180.00   
    46. D(C   4,C   3,C   2,H   7)    180.00 -0.000000    0.00    180.00   
    47. D(C   4,C   3,C   2,C   1)      0.00  0.000000   -0.00     -0.00   
    48. D(H   9,C   4,C   3,C   2)    180.00 -0.000000    0.00    180.00   
    49. D(C   5,C   4,C   3,H   8)    180.00 -0.000000    0.00    180.00   
    50. D(C   5,C   4,C   3,C   2)      0.00 -0.000000    0.00      0.00   
    51. D(H   9,C   4,C   3,H   8)      0.00 -0.000000    0.00      0.00   
    52. D(H  10,C   5,C   4,H   9)      0.00  0.000000   -0.00     -0.00   
    53. D(C   0,C   5,C   4,H   9)    180.00  0.000000   -0.00    180.00   
    54. D(C   0,C   5,C   4,C   3)      0.00  0.000000   -0.00     -0.00   
    55. D(H  10,C   5,C   0,C  11)      0.00  0.000000   -0.00     -0.00   
    56. D(H  10,C   5,C   0,C   1)    180.00  0.000000   -0.00    180.00   
    57. D(H  10,C   5,C   4,C   3)    180.00  0.000000   -0.00    180.00   
    58. D(C   4,C   5,C   0,C  11)    180.00  0.000000   -0.00    180.00   
    59. D(C   4,C   5,C   0,C   1)      0.00  0.000000   -0.00     -0.00   
    60. D(H  13,C  11,C   0,C   5)      0.00  0.000000   -0.00     -0.00   
    61. D(H  13,C  11,C   0,C   1)    180.00  0.000000   -0.00    180.00   
    62. D(O  12,C  11,C   0,C   5)    180.00 -0.000000    0.00    180.00   
    63. D(O  12,C  11,C   0,C   1)      0.00 -0.000000    0.00      0.00   
    ----------------------------------------------------------------------------

         *************************************************************
         *                GEOMETRY OPTIMIZATION CYCLE   2            *
         *************************************************************
---------------------------------
CARTESIAN COORDINATES (ANGSTROEM)
---------------------------------
  C     -7.645412    1.062508   -0.000000
  C     -8.793658    0.255229   -0.000000
  C     -8.670911   -1.134247   -0.000000
  C     -7.402457   -1.728714    0.000000
  C     -6.254624   -0.930478    0.000000
  C     -6.376073    0.461022   -0.000000
  H     -9.784306    0.714129   -0.000000
  H     -9.567189   -1.759308    0.000000
  H     -7.309397   -2.817906    0.000000
  H     -5.264881   -1.393934   -0.000000
  H     -5.474311    1.080401   -0.000000
  C     -7.764517    2.538073   -0.000000
  O     -8.835873    3.114540    0.000000
  H     -6.822541    3.134484    0.000000

----------------------------
CARTESIAN COORDINATES (A.U.)
----------------------------
  NO LB      ZA    FRAG     MASS         X           Y           Z
   0 C     6.0000    0    12.011  -14.447734    2.007849   -0.000000
   1 C     6.0000    0    12.011  -16.617606    0.482312   -0.000000
   2 C     6.0000    0    12.011  -16.385648   -2.143416   -0.000000
   3 C     6.0000    0    12.011  -13.988616   -3.266796    0.000000
   4 C     6.0000    0    12.011  -11.819527   -1.758348    0.000000
   5 C     6.0000    0    12.011  -12.049031    0.871206   -0.000000
   6 H     1.0000    0     1.008  -18.489658    1.349508   -0.000000
   7 H     1.0000    0     1.008  -18.079367   -3.324610    0.000000
   8 H     1.0000    0     1.008  -13.812758   -5.325070    0.000000
   9 H     1.0000    0     1.008   -9.949184   -2.634153   -0.000000
  10 H     1.0000    0     1.008  -10.344949    2.041662   -0.000000
  11 C     6.0000    0    12.011  -14.672811    4.796263   -0.000000
  12 O     8.0000    0    15.999  -16.697381    5.885628    0.000000
  13 H     1.0000    0     1.008  -12.892734    5.923316    0.000000

--------------------------------
INTERNAL COORDINATES (ANGSTROEM)
--------------------------------
 C      0   0   0     0.000000000000     0.00000000     0.00000000
 C      1   0   0     1.403627669878     0.00000000     0.00000000
 C      2   1   0     1.394886802048   120.06084761     0.00000000
 C      3   2   1     1.400845258848   120.15878158     0.00000000
 C      4   3   2     1.398106049480   120.07378135     0.00000000
 C      5   4   3     1.396789693530   119.82781157     0.00000000
 H      2   1   3     1.091774565648   120.03558661   179.99999829
 H      3   2   1     1.092709938771   119.84334558   179.99999648
 H      4   3   2     1.093160138602   119.99381312   180.00000000
 H      5   4   3     1.092878209724   120.09237170   180.00000283
 H      6   5   4     1.093985442836   119.49534316   180.00000000
 C      1   2   3     1.480364416594   120.49446068   180.00000171
 O     12   1   2     1.216601325794   122.89829498     0.00000000
 H     12   1   2     1.114910255010   117.72504873   179.99999427

---------------------------
INTERNAL COORDINATES (A.U.)
---------------------------
 C      0   0   0     0.000000000000     0.00000000     0.00000000
 C      1   0   0     2.652471890063     0.00000000     0.00000000
 C      2   1   0     2.635954043691   120.06084761     0.00000000
 C      3   2   1     2.647213895225   120.15878158     0.00000000
 C      4   3   2     2.642037539696   120.07378135     0.00000000
 C      5   4   3     2.639549987456   119.82781157     0.00000000
 H      2   1   3     2.063154929055   120.03558661   179.99999829
 H      3   2   1     2.064922528092   119.84334558   179.99999648
 H      4   3   2     2.065773282478   119.99381312   180.00000000
 H      5   4   3     2.065240514108   120.09237170   180.00000283
 H      6   5   4     2.067332881456   119.49534316   180.00000000
 C      1   2   3     2.797483325765   120.49446068   180.00000171
 O     12   1   2     2.299043319916   122.89829498     0.00000000
 H     12   1   2     2.106875045869   117.72504873   179.99999427

------------------------------------------------------------------------------
                   ___                                                        
                  /   \      - P O W E R E D   B Y -                         
                 /     \                                                     
                 |  |  |   _    _      __       _____    __    __             
                 |  |  |  | |  | |    /  \     |  _  \  |  |  /  |          
                  \  \/   | |  | |   /    \    | | | |  |  | /  /          
                 / \  \   | |__| |  /  /\  \   | |_| |  |  |/  /          
                |  |  |   |  __  | /  /__\  \  |    /   |      \           
                |  |  |   | |  | | |   __   |  |    \   |  |\   \          
                \     /   | |  | | |  |  |  |  | |\  \  |  | \   \       
                 \___/    |_|  |_| |__|  |__|  |_| \__\ |__|  \__/        
                                                                              
                      - O R C A' S   B I G   F R I E N D -                    
                                      &                                       
                       - I N T E G R A L  F E E D E R -                       
                                                                              
 v1 FN, 2020, v2 2021                                                         
------------------------------------------------------------------------------


Reading SHARK input file opt.SHARKINP.tmp ... ok
----------------------
SHARK INTEGRAL PACKAGE
----------------------

Number of atoms                             ...     14
Number of basis functions                   ...    142
Number of shells                            ...     66
Maximum angular momentum                    ...      2
Integral batch strategy                     ... SHARK/LIBINT Hybrid
RI-J (if used) integral strategy            ... SPLIT-RIJ (Revised 2003 algorithm where possible)
Printlevel                                  ...      1
Contraction scheme used                     ... SEGMENTED contraction
Coulomb Range Separation                    ... NOT USED
Exchange Range Separation                   ... NOT USED
Finite Nucleus Model                        ... NOT USED
Auxiliary Coulomb fitting basis             ... AVAILABLE
   # of basis functions in Aux-J            ...    458
   # of shells in Aux-J                     ...    150
   Maximum angular momentum in Aux-J        ...      4
Auxiliary J/K fitting basis                 ... NOT available
Auxiliary Correlation fitting basis         ... NOT available
Auxiliary 'external' fitting basis          ... NOT available
Integral threshold                          ...     2.500000e-11
Primitive cut-off                           ...     2.500000e-12
Primitive pair pre-selection threshold      ...     2.500000e-12

Calculating pre-screening integrals         ... done (  0.1 sec) Dimension = 66
Organizing shell pair data                  ... done (  0.1 sec)
Shell pair information
Total number of shell pairs                 ...      2211
Shell pairs after pre-screening             ...      2100
Total number of primitive shell pairs       ...      8123
Primitive shell pairs kept                  ...      5739
          la=0 lb=0:    629 shell pairs
          la=1 lb=0:    757 shell pairs
          la=1 lb=1:    243 shell pairs
          la=2 lb=0:    269 shell pairs
          la=2 lb=1:    168 shell pairs
          la=2 lb=2:     34 shell pairs

Calculating one electron integrals          ... done (  0.1 sec)
Calculating RI/J V-Matrix + Cholesky decomp.... done (  0.1 sec)
[...]
     14       0.000005   0.000002  -0.000005  -0.000009  -0.000003  -0.000011
     15      -0.033320  -0.002078  -0.027888  -0.010317  -0.003035  -0.161025
     16      -0.098056   0.022609   0.033781   0.065567  -0.044375   0.223666
     17      -0.000003   0.000001   0.000005   0.000000  -0.000003   0.000021
     18       0.173319   0.159168   0.179115   0.000328  -0.263706   0.129772
     19       0.540272   0.300404   0.363862   0.039536  -0.469275   0.220962
     20       0.000083   0.000029   0.000050   0.000008  -0.000042   0.000082
     21       0.128406   0.353464   0.131861   0.175124   0.233785   0.024147
     22      -0.281353  -0.469994  -0.141979  -0.439236  -0.398789  -0.052616
     23      -0.000037  -0.000030  -0.000013  -0.000026  -0.000023  -0.000007
     24       0.484528  -0.672782   0.254809   0.039496   0.256588  -0.407805
     25       0.047812  -0.062084   0.018757  -0.003041   0.017523  -0.028331
     26       0.000005  -0.000001  -0.000000  -0.000003  -0.000000  -0.000003
     27       0.023960   0.106094  -0.278490  -0.107011   0.131548   0.012084
     28       0.283564   0.230288  -0.544926  -0.510510   0.318240   0.027810
     29       0.000016   0.000012  -0.000022  -0.000038   0.000021   0.000003
     30       0.193644  -0.042149  -0.341043   0.222457  -0.317979   0.199492
     31      -0.432257   0.079927   0.474581  -0.240091   0.394052  -0.283913
     32      -0.000052   0.000014   0.000021  -0.000002   0.000022  -0.000071
     33      -0.008307   0.005799   0.007255  -0.047769  -0.027367  -0.033833
     34      -0.009654   0.012844   0.022705  -0.118246  -0.052339  -0.083301
     35       0.000037  -0.000004  -0.000004  -0.000007   0.000015   0.000011
     36      -0.007622  -0.000056  -0.002640   0.022626   0.009513   0.037251
     37       0.013921  -0.000829   0.002771  -0.026289   0.013420   0.021220
     38      -0.000014   0.000001   0.000000   0.000009  -0.000006  -0.000003
     39      -0.026054  -0.004913  -0.017278   0.139067  -0.104162  -0.314856
     40       0.013761   0.032189   0.069976  -0.460286   0.086614   0.386271
     41      -0.000124   0.000012   0.000019   0.000010  -0.000096  -0.000193
                 30         31         32         33         34         35    
      0       0.028047   0.169782  -0.002150   0.329568   0.080025   0.096234
      1      -0.026458   0.015367  -0.167201   0.058119  -0.210999  -0.009691
      2      -0.000010  -0.000004  -0.000012   0.000002  -0.000023  -0.000014
      3      -0.003095  -0.061866   0.107109  -0.191765   0.030560  -0.045959
      4      -0.047577   0.087330   0.075944  -0.171112   0.296918  -0.033721
      5      -0.000001   0.000008   0.000008  -0.000013   0.000025   0.000007
      6      -0.023292  -0.014438  -0.128896   0.188301   0.126009   0.014298
      7       0.065403  -0.129621   0.118321   0.003925  -0.289962   0.015512
      8       0.000003  -0.000008   0.000008  -0.000001  -0.000021   0.000002
      9       0.018939   0.149884   0.015517  -0.363270  -0.058230  -0.018102
     10       0.003963   0.004356  -0.110854  -0.061847   0.134163  -0.010646
     11      -0.000003  -0.000001  -0.000009  -0.000003   0.000010  -0.000004
     12      -0.035568  -0.027537   0.097270   0.215098  -0.018318   0.015685
     13      -0.058040   0.145124   0.118420   0.132106  -0.270876   0.038269
     14      -0.000005   0.000007   0.000009   0.000008  -0.000018  -0.000003
     15       0.011921  -0.051700  -0.106871  -0.202478  -0.151143  -0.009293
     16       0.022768  -0.097830   0.069473   0.058043   0.304454  -0.041303
     17       0.000002  -0.000006   0.000007   0.000006   0.000027  -0.000008
     18       0.032961  -0.183864  -0.109976   0.023777  -0.257235  -0.012678
     19       0.017473  -0.121167  -0.402512   0.290453  -0.248804   0.078680
     20      -0.000006  -0.000003  -0.000055   0.000050  -0.000034  -0.000002
     21       0.082535  -0.277089   0.252570   0.088881  -0.258662  -0.003028
     22      -0.078937   0.207750  -0.437328   0.188941   0.233622   0.039201
     23      -0.000005   0.000011  -0.000030   0.000012   0.000018   0.000006
     24       0.094599  -0.621934   0.017239   0.469783   0.035990   0.015564
     25       0.012184  -0.065253  -0.135115   0.006012   0.164248  -0.009198
     26      -0.000002  -0.000003  -0.000017   0.000001  -0.000000  -0.000000
     27       0.075987  -0.263858  -0.150672   0.041447   0.218057  -0.016164
     28       0.180326  -0.315386  -0.438428  -0.294280   0.196296  -0.028737
     29       0.000006  -0.000015  -0.000029  -0.000016   0.000009  -0.000013
     30      -0.021283  -0.200339   0.211924   0.015252   0.290899  -0.031041
     31       0.081170   0.079948  -0.401555  -0.272693  -0.303265  -0.001499
     32      -0.000003  -0.000005  -0.000045  -0.000037  -0.000042  -0.000001
     33       0.037079   0.003433   0.010005   0.026503  -0.016471  -0.602979
     34       0.089055  -0.007003   0.043322  -0.048261   0.039736   0.395193
     35       0.000007   0.000022   0.000005   0.000035  -0.000000  -0.000252
     36      -0.077075  -0.039193  -0.009841  -0.046759   0.000467   0.417858
     37      -0.001611   0.017906   0.003004   0.035292  -0.001172  -0.240898
     38      -0.000010  -0.000016  -0.000002  -0.000026   0.000003   0.000203
     39       0.553044   0.172579   0.030631   0.079704   0.053707  -0.029895
     40      -0.771868  -0.281289   0.010575  -0.132731  -0.064409  -0.468442
     41       0.000256   0.000049   0.000008  -0.000008   0.000010   0.000016
                 36         37         38         39         40         41    
      0       0.002038  -0.001936  -0.001031  -0.000605  -0.001712   0.001890
      1      -0.001870   0.001610   0.000179   0.000699  -0.000219   0.001530
      2      -0.000002   0.000000  -0.000000  -0.000000  -0.000000   0.000000
      3      -0.000237  -0.003991   0.012995  -0.025133   0.031324  -0.066093
      4      -0.000306   0.001066  -0.005083   0.009890  -0.014716   0.034614
      5      -0.000001   0.000000  -0.000001   0.000001  -0.000002   0.000003
      6       0.000320   0.008232  -0.038589   0.047757  -0.014528  -0.032895
      7      -0.000067   0.006057  -0.029124   0.031558  -0.005828  -0.026146
      8      -0.000001   0.000000  -0.000002   0.000002  -0.000000  -0.000002
      9      -0.000231   0.001649  -0.004433  -0.006335   0.002458   0.003290
     10       0.000014  -0.016794   0.058672   0.028086  -0.051196  -0.022294
     11      -0.000000  -0.000001   0.000004   0.000002  -0.000004  -0.000002
     12      -0.000380  -0.028320   0.016936   0.044206   0.055518   0.014735
     13       0.000406   0.010727  -0.011180  -0.022929  -0.024508  -0.005886
     14       0.000001   0.000001  -0.000001  -0.000002  -0.000002  -0.000000
     15      -0.000744   0.063611   0.024150   0.014285   0.013302   0.002723
     16      -0.000535   0.044176   0.017840   0.011992   0.012803   0.002294
     17       0.000002   0.000003   0.000001   0.000001   0.000001   0.000000
     18      -0.005115   0.043754  -0.155488   0.290069  -0.359833   0.751531
     19      -0.000751  -0.019772   0.075151  -0.138946   0.174665  -0.367948
     20      -0.000000  -0.000002   0.000007  -0.000013   0.000017  -0.000035
     21      -0.001649  -0.099929   0.462342  -0.531463   0.139238   0.367593
     22      -0.000141  -0.070783   0.329018  -0.374041   0.093980   0.262133
     23      -0.000003  -0.000005   0.000021  -0.000023   0.000006   0.000016
     24      -0.000460  -0.017792   0.059710   0.032586  -0.047516  -0.022399
     25       0.000042   0.201203  -0.684251  -0.322120   0.560944   0.238292
     26      -0.000000   0.000014  -0.000049  -0.000023   0.000040   0.000017
     27       0.000513   0.335644  -0.212005  -0.513104  -0.608162  -0.155899
     28       0.000692  -0.154371   0.102133   0.242234   0.282532   0.071760
     29       0.000002  -0.000012   0.000008   0.000019   0.000023   0.000006
     30       0.005604  -0.729743  -0.275035  -0.161997  -0.155500  -0.026962
     31       0.011280  -0.515222  -0.195066  -0.116200  -0.113634  -0.019262
     32       0.000002  -0.000037  -0.000014  -0.000008  -0.000008  -0.000001
     33       0.069369   0.000313   0.000320  -0.000147   0.000482  -0.000824
     34       0.046017   0.001171   0.000489   0.000513   0.000105   0.000820
     35      -0.000032  -0.000001  -0.000000  -0.000000  -0.000000  -0.000000
     36       0.001336   0.000213   0.000002   0.000245  -0.000137   0.000581
     37      -0.001324  -0.000342  -0.000178  -0.000082  -0.000143  -0.000095
     38       0.000000   0.000000   0.000000   0.000000  -0.000000   0.000000
     39      -0.855811  -0.006675  -0.002869  -0.002085  -0.000834  -0.003496
     40      -0.510349  -0.007738  -0.002981  -0.002297  -0.000577  -0.003906
     41       0.000409   0.000006   0.000002   0.000001   0.000001   0.000002


-----------
IR SPECTRUM
-----------

 Mode   freq       eps      Int      T**2         TX        TY        TZ
       cm**-1   L/(mol*cm) km/mol    a.u.
----------------------------------------------------------------------------
  6:    128.66   0.000637    3.22  0.001545  ( 0.000018  0.000027  0.039302)
  7:    222.90   0.001450    7.33  0.002030  ( 0.016545  0.041912 -0.000034)
  8:    244.20   0.001262    6.38  0.001613  (-0.000052 -0.000047 -0.040159)
  9:    423.09   0.000011    0.05  0.000008  ( 0.000008 -0.000020 -0.002818)
 10:    444.18   0.000020    0.10  0.000014  (-0.002333 -0.002922 -0.000022)
 11:    475.26   0.001007    5.09  0.000661  ( 0.000017 -0.000012  0.025712)
 12:    629.09   0.000047    0.24  0.000024  (-0.002448 -0.004190 -0.000002)
 13:    664.18   0.004646   23.48  0.002183  ( 0.005556  0.046388  0.000003)
 14:    716.38   0.005450   27.54  0.002374  ( 0.000012 -0.000021  0.048724)
 15:    770.83   0.005932   29.98  0.002401  (-0.000017 -0.000005  0.049005)
 16:    842.34   0.006148   31.07  0.002278  ( 0.007533  0.047127 -0.000004)
 17:    872.60   0.000003    0.01  0.000001  (-0.000003  0.000005 -0.001016)
 18:    953.29   0.000254    1.28  0.000083  ( 0.000018 -0.000018 -0.009111)
 19:   1015.26   0.000084    0.42  0.000026  ( 0.000470 -0.005051  0.000010)
 20:   1015.38   0.000007    0.04  0.000002  ( 0.000008  0.000029  0.001512)
 21:   1031.57   0.000002    0.01  0.000001  (-0.000030  0.000022 -0.000817)
 22:   1043.00   0.000485    2.45  0.000145  ( 0.001181 -0.011990 -0.000001)
 23:   1045.81   0.000005    0.03  0.000002  (-0.000031  0.000033 -0.001248)
 24:   1095.39   0.001153    5.83  0.000328  ( 0.017869  0.003012  0.000002)
 25:   1170.33   0.000719    3.63  0.000192  (-0.003646  0.013356 -0.000000)
 26:   1174.89   0.002351   11.88  0.000624  (-0.000953  0.024971 -0.000000)
 27:   1230.83   0.012370   62.51  0.003136  ( 0.003674 -0.055882  0.000003)
 28:   1324.48   0.003064   15.49  0.000722  (-0.007813 -0.025709  0.000001)
 29:   1377.30   0.001156    5.84  0.000262  ( 0.010919 -0.011945 -0.000000)
 30:   1417.59   0.001784    9.01  0.000393  ( 0.012814  0.015115  0.000006)
 31:   1484.81   0.002567   12.97  0.000540  (-0.016967 -0.015866  0.000004)
 32:   1521.47   0.000186    0.94  0.000038  ( 0.001005  0.006097 -0.000003)
 33:   1641.51   0.002152   10.88  0.000409  ( 0.007022 -0.018969  0.000003)
 34:   1659.36   0.005200   26.28  0.000978  (-0.007190  0.030434  0.000001)
 35:   1819.44   0.047163  238.34  0.008089  (-0.057865  0.068854  0.000002)
 36:   2877.31   0.025943  131.11  0.002814  ( 0.036528  0.038463  0.000001)
 37:   3166.85   0.000683    3.45  0.000067  ( 0.005656  0.005945  0.000000)
 38:   3177.02   0.000209    1.05  0.000020  (-0.000148  0.004524  0.000000)
 39:   3187.92   0.002178   11.00  0.000213  ( 0.013416  0.005759  0.000001)
 40:   3197.19   0.001892    9.56  0.000185  ( 0.008945 -0.010231 -0.000001)
 41:   3204.17   0.001168    5.90  0.000114  (-0.003611 -0.010034  0.000000)

* The epsilon (eps) is given for a Dirac delta lineshape.
** The dipole moment derivative (T) already includes vibrational overlap.

The first frequency considered to be a vibration is 6
The total number of vibrations considered is 36


--------------------------
THERMOCHEMISTRY AT 298.15K
--------------------------

Temperature         ... 298.15 K
Pressure            ... 1.00 atm
Total Mass          ... 106.12 AMU

Throughout the following assumptions are being made:
  (1) The electronic state is orbitally nondegenerate
  (2) There are no thermally accessible electronically excited states
  (3) Hindered rotations indicated by low frequency modes are not
      treated as such but are treated as vibrations and this may
      cause some error
  (4) All equations used are the standard statistical mechanics
      equations for an ideal gas
  (5) All vibrations are strictly harmonic

freq.     128.66  E(vib)   ...       0.43 
freq.     222.90  E(vib)   ...       0.33 
freq.     244.20  E(vib)   ...       0.31 
freq.     423.09  E(vib)   ...       0.18 
freq.     444.18  E(vib)   ...       0.17 
freq.     475.26  E(vib)   ...       0.15 
freq.     629.09  E(vib)   ...       0.09 
freq.     664.18  E(vib)   ...       0.08 
freq.     716.38  E(vib)   ...       0.07 
freq.     770.83  E(vib)   ...       0.05 
freq.     842.34  E(vib)   ...       0.04 
freq.     872.60  E(vib)   ...       0.04 
freq.     953.29  E(vib)   ...       0.03 
freq.    1015.26  E(vib)   ...       0.02 
freq.    1015.38  E(vib)   ...       0.02 
freq.    1031.57  E(vib)   ...       0.02 
freq.    1043.00  E(vib)   ...       0.02 
freq.    1045.81  E(vib)   ...       0.02 
freq.    1095.39  E(vib)   ...       0.02 
freq.    1170.33  E(vib)   ...       0.01 
freq.    1174.89  E(vib)   ...       0.01 
freq.    1230.83  E(vib)   ...       0.01 
freq.    1324.48  E(vib)   ...       0.01 
freq.    1377.30  E(vib)   ...       0.01 
freq.    1417.59  E(vib)   ...       0.00 
freq.    1484.81  E(vib)   ...       0.00 
freq.    1521.47  E(vib)   ...       0.00 
freq.    1641.51  E(vib)   ...       0.00 
freq.    1659.36  E(vib)   ...       0.00 
freq.    1819.44  E(vib)   ...       0.00 
freq.    2877.31  E(vib)   ...       0.00 
freq.    3166.85  E(vib)   ...       0.00 
freq.    3177.02  E(vib)   ...       0.00 
freq.    3187.92  E(vib)   ...       0.00 
freq.    3197.19  E(vib)   ...       0.00 
freq.    3204.17  E(vib)   ...       0.00 

------------
INNER ENERGY
------------

The inner energy is: U= E(el) + E(ZPE) + E(vib) + E(rot) + E(trans)
    E(el)   - is the total energy from the electronic structure calculation
              = E(kin-el) + E(nuc-el) + E(el-el) + E(nuc-nuc)
    E(ZPE)  - the the zero temperature vibrational energy from the frequency calculation
    E(vib)  - the the finite temperature correction to E(ZPE) due to population
              of excited vibrational states
    E(rot)  - is the rotational thermal energy
    E(trans)- is the translational thermal energy

Summary of contributions to the inner energy U:
Electronic energy                ...   -345.14067118 Eh
Zero point energy                ...      0.10995771 Eh      69.00 kcal/mol
Thermal vibrational correction   ...      0.00342140 Eh       2.15 kcal/mol
Thermal rotational correction    ...      0.00141627 Eh       0.89 kcal/mol
Thermal translational correction ...      0.00141627 Eh       0.89 kcal/mol
-----------------------------------------------------------------------
Total thermal energy                   -345.02445953 Eh


Summary of corrections to the electronic energy:
(perhaps to be used in another calculation)
Total thermal correction                  0.00625394 Eh       3.92 kcal/mol
Non-thermal (ZPE) correction              0.10995771 Eh      69.00 kcal/mol
-----------------------------------------------------------------------
Total correction                          0.11621165 Eh      72.92 kcal/mol


--------
ENTHALPY
--------

The enthalpy is H = U + kB*T
                kB is Boltzmann's constant
Total free energy                 ...   -345.02445953 Eh 
Thermal Enthalpy correction       ...      0.00094421 Eh       0.59 kcal/mol
-----------------------------------------------------------------------
Total Enthalpy                    ...   -345.02351532 Eh


Note: Only C1 symmetry has been detected, increase convergence thresholds 
      if your molecule has a higher symmetry. Symmetry factor of 1.0 is   
      used for the rotational entropy correction. 
 

Note: Rotational entropy computed according to Herzberg 
Infrared and Raman Spectra, Chapter V,1, Van Nostrand Reinhold, 1945 
Point Group:  C1, Symmetry Number:   1  
Rotational constants in cm-1:     0.173808     0.051962     0.040003 

Vibrational entropy computed according to the QRRHO of S. Grimme
Chem.Eur.J. 2012 18 9955


-------
ENTROPY
-------

The entropy contributions are T*S = T*(S(el)+S(vib)+S(rot)+S(trans))
     S(el)   - electronic entropy
     S(vib)  - vibrational entropy
     S(rot)  - rotational entropy
     S(trans)- translational entropy
The entropies will be listed as multiplied by the temperature to get
units of energy

Electronic entropy                ...      0.00000000 Eh      0.00 kcal/mol
Vibrational entropy               ...      0.00543355 Eh      3.41 kcal/mol
Rotational entropy                ...      0.01325252 Eh      8.32 kcal/mol
Translational entropy             ...      0.01895542 Eh     11.89 kcal/mol
-----------------------------------------------------------------------
Final entropy term                ...      0.03764150 Eh     23.62 kcal/mol

In case the symmetry of your molecule has not been determined correctly
or in case you have a reason to use a different symmetry number we print 
out the resulting rotational entropy values for sn=1,12 :
 --------------------------------------------------------
|  sn= 1 | S(rot)=       0.01325252 Eh      8.32 kcal/mol|
|  sn= 2 | S(rot)=       0.01259807 Eh      7.91 kcal/mol|
|  sn= 3 | S(rot)=       0.01221524 Eh      7.67 kcal/mol|
|  sn= 4 | S(rot)=       0.01194361 Eh      7.49 kcal/mol|
|  sn= 5 | S(rot)=       0.01173292 Eh      7.36 kcal/mol|
|  sn= 6 | S(rot)=       0.01156078 Eh      7.25 kcal/mol|
|  sn= 7 | S(rot)=       0.01141523 Eh      7.16 kcal/mol|
|  sn= 8 | S(rot)=       0.01128916 Eh      7.08 kcal/mol|
|  sn= 9 | S(rot)=       0.01117795 Eh      7.01 kcal/mol|
|  sn=10 | S(rot)=       0.01107847 Eh      6.95 kcal/mol|
|  sn=11 | S(rot)=       0.01098848 Eh      6.90 kcal/mol|
|  sn=12 | S(rot)=       0.01090632 Eh      6.84 kcal/mol|
 --------------------------------------------------------


-------------------
GIBBS FREE ENERGY
-------------------

The Gibbs free energy is G = H - T*S

Total enthalpy                    ...   -345.02351532 Eh 
Total entropy correction          ...     -0.03764150 Eh    -23.62 kcal/mol
-----------------------------------------------------------------------
Final Gibbs free energy         ...   -345.06115681 Eh

For completeness - the Gibbs free energy minus the electronic energy
G-E(el)                           ...      0.07951436 Eh     49.90 kcal/mol


Timings for individual modules:

Sum of individual times         ...     2108.225 sec (=  35.137 min)
GTO integral calculation        ...       17.722 sec (=   0.295 min)   0.8 %
SCF iterations                  ...     1005.038 sec (=  16.751 min)  47.7 %
SCF Gradient evaluation         ...      312.144 sec (=   5.202 min)  14.8 %
Geometry relaxation             ...        5.564 sec (=   0.093 min)   0.3 %
Analytical frequency calculation...      767.757 sec (=  12.796 min)  36.4 %
                             ****ORCA TERMINATED NORMALLY****
TOTAL RUN TIME: 0 days 0 hours 35 minutes 14 seconds 585 msec
