
                                 *****************
                                 * O   R   C   A *
                                 *****************

                                            #,                                       
                                            ###                                      
                                            ####                                     
                                            #####                                    
                                            ######                                   
                                           ########,                                 
                                     ,,################,,,,,                         
                               ,,#################################,,                 
                          ,,##########################################,,             
                       ,#########################################, ''#####,          
                    ,#############################################,,   '####,        
                  ,##################################################,,,,####,       
                ,###########''''           ''''###############################       
              ,#####''   ,,,,##########,,,,          '''####'''          '####       
            ,##' ,,,,###########################,,,                        '##       
           ' ,,###''''                  '''############,,,                           
         ,,##''                                '''############,,,,        ,,,,,,###''
      ,#''                                            '''#######################'''  
     '                                                          ''''####''''         
             ,#######,   #######,   ,#######,      ##                                
            ,#'     '#,  ##    ##  ,#'     '#,    #''#        ######   ,####,        
            ##       ##  ##   ,#'  ##            #'  '#       #        #'  '#        
            ##       ##  #######   ##           ,######,      #####,   #    #        
            '#,     ,#'  ##    ##  '#,     ,#' ,#      #,         ##   #,  ,#        
             '#######'   ##     ##  '#######'  #'      '#     #####' # '####'        



                  #######################################################
                  #                        -***-                        #
                  #          Department of theory and spectroscopy      #
                  #    Directorship and core code : Frank Neese         #
                  #        Max Planck Institute fuer Kohlenforschung    #
                  #                Kaiser Wilhelm Platz 1               #
                  #                 D-45470 Muelheim/Ruhr               #
                  #                      Germany                        #
                  #                                                     #
                  #                  All rights reserved                #
                  #                        -***-                        #
                  #######################################################



                         Program Version 5.0.4 -  RELEASE  -

 With contributions from (in alphabetic order):
   Daniel Aravena         : Magnetic Suceptibility
   Michael Atanasov       : Ab Initio Ligand Field Theory (pilot matlab implementation)
   Alexander A. Auer      : GIAO ZORA, VPT2 properties, NMR spectrum
   Ute Becker             : Parallelization
   Giovanni Bistoni       : ED, misc. LED, open-shell LED, HFLD
   Martin Brehm           : Molecular dynamics
   Dmytro Bykov           : SCF Hessian
   Vijay G. Chilkuri      : MRCI spin determinant printing, contributions to CSF-ICE
   Dipayan Datta          : RHF DLPNO-CCSD density
   Achintya Kumar Dutta   : EOM-CC, STEOM-CC
   Dmitry Ganyushin       : Spin-Orbit,Spin-Spin,Magnetic field MRCI
   Miquel Garcia          : C-PCM and meta-GGA Hessian, CC/C-PCM, Gaussian charge scheme
   Yang Guo               : DLPNO-NEVPT2, F12-NEVPT2, CIM, IAO-localization
   Andreas Hansen         : Spin unrestricted coupled pair/coupled cluster methods
   Benjamin Helmich-Paris : MC-RPA, TRAH-SCF, COSX integrals
   Lee Huntington         : MR-EOM, pCC
   Robert Izsak           : Overlap fitted RIJCOSX, COSX-SCS-MP3, EOM
   Marcus Kettner         : VPT2
   Christian Kollmar      : KDIIS, OOCD, Brueckner-CCSD(T), CCSD density, CASPT2, CASPT2-K
   Simone Kossmann        : Meta GGA functionals, TD-DFT gradient, OOMP2, MP2 Hessian
   Martin Krupicka        : Initial AUTO-CI
   Lucas Lang             : DCDCAS
   Marvin Lechner         : AUTO-CI (C++ implementation), FIC-MRCC
   Dagmar Lenk            : GEPOL surface, SMD
   Dimitrios Liakos       : Extrapolation schemes; Compound Job, initial MDCI parallelization
   Dimitrios Manganas     : Further ROCIS development; embedding schemes
   Dimitrios Pantazis     : SARC Basis sets
   Anastasios Papadopoulos: AUTO-CI, single reference methods and gradients
   Taras Petrenko         : DFT Hessian,TD-DFT gradient, ASA, ECA, R-Raman, ABS, FL, XAS/XES, NRVS
   Peter Pinski           : DLPNO-MP2, DLPNO-MP2 Gradient
   Christoph Reimann      : Effective Core Potentials
   Marius Retegan         : Local ZFS, SOC
   Christoph Riplinger    : Optimizer, TS searches, QM/MM, DLPNO-CCSD(T), (RO)-DLPNO pert. Triples
   Tobias Risthaus        : Range-separated hybrids, TD-DFT gradient, RPA, STAB
   Michael Roemelt        : Original ROCIS implementation
   Masaaki Saitow         : Open-shell DLPNO-CCSD energy and density
   Barbara Sandhoefer     : DKH picture change effects
   Avijit Sen             : IP-ROCIS
   Kantharuban Sivalingam : CASSCF convergence, NEVPT2, FIC-MRCI
   Bernardo de Souza      : ESD, SOC TD-DFT
   Georgi Stoychev        : AutoAux, RI-MP2 NMR, DLPNO-MP2 response
   Willem Van den Heuvel  : Paramagnetic NMR
   Boris Wezisla          : Elementary symmetry handling
   Frank Wennmohs         : Technical directorship


 We gratefully acknowledge several colleagues who have allowed us to
 interface, adapt or use parts of their codes:
   Stefan Grimme, W. Hujo, H. Kruse, P. Pracht,  : VdW corrections, initial TS optimization,
                  C. Bannwarth, S. Ehlert          DFT functionals, gCP, sTDA/sTD-DF
   Ed Valeev, F. Pavosevic, A. Kumar             : LibInt (2-el integral package), F12 methods
   Garnet Chan, S. Sharma, J. Yang, R. Olivares  : DMRG
   Ulf Ekstrom                                   : XCFun DFT Library
   Mihaly Kallay                                 : mrcc  (arbitrary order and MRCC methods)
   Jiri Pittner, Ondrej Demel                    : Mk-CCSD
   Frank Weinhold                                : gennbo (NPA and NBO analysis)
   Christopher J. Cramer and Donald G. Truhlar   : smd solvation model
   Lars Goerigk                                  : TD-DFT with DH, B97 family of functionals
   V. Asgeirsson, H. Jonsson                     : NEB implementation
   FAccTs GmbH                                   : IRC, NEB, NEB-TS, DLPNO-Multilevel, CI-OPT
                                                   MM, QMMM, 2- and 3-layer-ONIOM, Crystal-QMMM,
                                                   LR-CPCM, SF, NACMEs, symmetry and pop. for TD-DFT,
                                                   nearIR, NL-DFT gradient (VV10), updates on ESD,
                                                   ML-optimized integration grids
   S Lehtola, MJT Oliveira, MAL Marques          : LibXC Library
   Liviu Ungur et al                             : ANISO software


 Your calculation uses the libint2 library for the computation of 2-el integrals
 For citations please refer to: http://libint.valeyev.net

 Your ORCA version has been built with support for libXC version: 5.1.0
 For citations please refer to: https://tddft.org/programs/libxc/

 This ORCA versions uses:
   CBLAS   interface :  Fast vector & matrix operations
   LAPACKE interface :  Fast linear algebra routines
   Shared memory     :  Shared parallel matrices


Your calculation utilizes the atom-pairwise dispersion correction
based on tight binding partial charges (D4)
Cite in your paper:
E.Caldeweyher, C.Bannwarth, S.Grimme, J.Chem.Phys., (2017), 147, 034112.
E.Caldeweyher, S.Ehlert, A.Hansen, H.Neugebauer, S.Grimme, J.Chem.Phys., (2018), in progress.
   

================================================================================

----- Orbital basis set information -----
Your calculation utilizes the basis: def2-SVP
   F. Weigend and R. Ahlrichs, Phys. Chem. Chem. Phys. 7, 3297 (2005).

----- AuxJ basis set information -----
Your calculation utilizes the auxiliary basis: def2/J
   F. Weigend, Phys. Chem. Chem. Phys. 8, 1057 (2006).

================================================================================
                                        WARNINGS
                       Please study these warnings very carefully!
================================================================================


WARNING: Geometry Optimization
  ===> : Switching off AutoStart
         For restart on a previous wavefunction, please use MOREAD

INFO   : the flag for use of the SHARK integral package has been found!

================================================================================
                                       INPUT FILE
================================================================================
NAME = para_p_opt_6.inp
|  1> !B3LYP DEF2-SVP OPT FREQ D4 SOSCF
|  2> 
|  3> %geom
|  4> convergence tight
|  5> maxIter 1000
|  6> end
|  7> 
|  8> %scf
|  9> convergence tight
| 10> maxIter 1000
| 11> end
| 12> 
| 13> * xyz 1 1
| 14>    C       -5.87155        0.94275        0.12457
| 15>    C       -6.86610        1.47648       -0.73788
| 16>    C       -7.40772        0.71005       -1.75492
| 17>    C       -6.94328       -0.61295       -1.91660
| 18>    C       -5.95672       -1.18328       -1.09054
| 19>    C       -5.43110       -0.40643       -0.07757
| 20>    C       -5.27854        1.74155        1.22982
| 21>    H       -5.64982        1.23957        2.32547
| 22>    H       -5.60119        2.89925        1.12215
| 23>    H       -4.00716        1.57727        1.19419
| 24>    H       -7.20339        2.50495       -0.59151
| 25>    H       -8.17844        1.09704       -2.42341
| 26>    H       -5.62757       -2.20883       -1.26737
| 27>    H       -4.66438       -0.81975        0.58299
| 28>    N       -7.52024       -1.42732       -2.98343
| 29>    O       -6.77865       -2.20361       -3.55665
| 30>    O       -8.70676       -1.26858       -3.21528
| 31>    H      -13.98651       -5.61451       -8.57334
| 32> **                         ****END OF INPUT****
================================================================================

                       *****************************
                       * Geometry Optimization Run *
                       *****************************

Geometry optimization settings:
Update method            Update   .... BFGS
Choice of coordinates    CoordSys .... Z-matrix Internals
Initial Hessian          InHess   .... Almoef's Model

Convergence Tolerances:
Energy Change            TolE     ....  1.0000e-06 Eh
Max. Gradient            TolMAXG  ....  1.0000e-04 Eh/bohr
RMS Gradient             TolRMSG  ....  3.0000e-05 Eh/bohr
Max. Displacement        TolMAXD  ....  1.0000e-03 bohr
RMS Displacement         TolRMSD  ....  6.0000e-04 bohr
Strict Convergence                ....  False
------------------------------------------------------------------------------
                        ORCA OPTIMIZATION COORDINATE SETUP
------------------------------------------------------------------------------

The optimization will be done in new redundant internal coordinates
Making redundant internal coordinates   ...  (new redundants) done
Evaluating the initial hessian          ...  (Almloef) done
Evaluating the coordinates              ...  done
Calculating the B-matrix                .... done
Calculating the G-matrix                .... done
Diagonalizing the G-matrix              .... done
Small eigenvalue found = 1.006e-02
Small eigenvalue found = 2.713e-02
The first mode is                       ....   53
The number of degrees of freedom        ....   48

    -----------------------------------------------------------------
                    Redundant Internal Coordinates


    -----------------------------------------------------------------
         Definition                    Initial Value    Approx d2E/dq
    -----------------------------------------------------------------
      1. B(C   1,C   0)                  1.4205         0.558572   
      2. B(C   2,C   1)                  1.3839         0.638991   
      3. B(C   3,C   2)                  1.4114         0.577466   
      4. B(C   4,C   3)                  1.4075         0.585973   
      5. B(C   5,C   4)                  1.3805         0.646900   
      6. B(C   5,C   0)                  1.4336         0.532371   
      7. B(C   6,C   0)                  1.4871         0.437422   
      8. B(H   7,C   6)                  1.2611         0.192089   
      9. B(H   8,C   6)                  1.2066         0.234607   
     10. B(H   9,C   6)                  1.2824         0.177578   
     11. B(H  10,C   1)                  1.0922         0.357178   
     12. B(H  11,C   2)                  1.0912         0.358557   
     13. B(H  12,C   4)                  1.0915         0.358128   
     14. B(H  13,C   5)                  1.0932         0.355924   
     15. B(N  14,C   3)                  1.4609         0.431291   
     16. B(O  15,N  14)                  1.2170         0.946181   
     17. B(O  16,N  14)                  1.2193         0.938198   
     18. B(H  17,O  16)                  8.6874         0.000000   
     19. B(H  17,O  15)                  9.4210         0.000000   
     20. B(H  17,N  14)                  9.5180         0.000000   
     21. A(C   5,C   0,C   6)          119.1978         0.397060   
     22. A(C   1,C   0,C   6)          121.9131         0.400428   
     23. A(C   1,C   0,C   5)          118.8890         0.414588   
     24. A(C   2,C   1,H  10)          119.9422         0.354228   
     25. A(C   0,C   1,C   2)          120.8058         0.428322   
     26. A(C   0,C   1,H  10)          119.2520         0.346275   
     27. A(C   3,C   2,H  11)          119.6483         0.348445   
     28. A(C   1,C   2,H  11)          122.0229         0.354459   
     29. A(C   1,C   2,C   3)          118.3282         0.430886   
     30. A(C   2,C   3,C   4)          122.9048         0.424249   
     31. A(C   4,C   3,N  14)          118.6555         0.400236   
     32. A(C   2,C   3,N  14)          118.4383         0.399207   
     33. A(C   3,C   4,C   5)          118.0020         0.432976   
     34. A(C   5,C   4,H  12)          122.1933         0.355127   
     35. A(C   3,C   4,H  12)          119.8037         0.349235   
     36. A(C   0,C   5,C   4)          121.0692         0.425588   
     37. A(C   4,C   5,H  13)          119.8449         0.354756   
     38. A(C   0,C   5,H  13)          119.0857         0.343290   
     39. A(H   8,C   6,H   9)          112.6757         0.245097   
     40. A(H   7,C   6,H   9)          105.3685         0.238190   
     41. A(C   0,C   6,H   9)          107.8112         0.296813   
     42. A(H   7,C   6,H   8)          112.3782         0.247897   
     43. A(C   0,C   6,H   8)          110.0251         0.310334   
     44. A(C   0,C   6,H   7)          108.3320         0.300541   
     45. A(O  16,N  14,H  17)           44.3168         0.089249   
     46. A(O  15,N  14,H  17)           81.7639         0.089249   
     47. A(C   3,N  14,H  17)          160.4626         0.089210   
     48. A(O  15,N  14,O  16)          125.9038         0.492343   
     49. A(C   3,N  14,O  16)          116.7816         0.429493   
     50. A(C   3,N  14,O  15)          117.3142         0.430147   
     51. A(N  14,O  15,H  17)           90.8907         0.089270   
     52. A(N  14,O  16,H  17)          130.0560         0.089496   
     53. A(O  15,H  17,O  16)           12.9611         0.089000   
     54. A(N  14,H  17,O  16)            5.6273         0.089000   
     55. A(N  14,H  17,O  15)            7.3454         0.089000   
     56. D(H  10,C   1,C   0,C   5)   -179.7778         0.021368   
     57. D(H  10,C   1,C   0,C   6)      0.3545         0.021368   
     58. D(C   2,C   1,C   0,C   5)      0.2239         0.021368   
     59. D(C   2,C   1,C   0,C   6)   -179.6438         0.021368   
     60. D(C   3,C   2,C   1,C   0)     -0.2424         0.028363   
     61. D(H  11,C   2,C   1,H  10)     -0.5244         0.028363   
     62. D(C   3,C   2,C   1,H  10)    179.7593         0.028363   
     63. D(H  11,C   2,C   1,C   0)    179.4738         0.028363   
     64. D(N  14,C   3,C   2,H  11)     -0.1542         0.022901   
     65. D(N  14,C   3,C   2,C   1)    179.5690         0.022901   
     66. D(C   4,C   3,C   2,H  11)   -179.7204         0.022901   
     67. D(C   4,C   3,C   2,C   1)      0.0029         0.022901   
     68. D(C   5,C   4,C   3,N  14)   -179.3126         0.023613   
     69. D(H  12,C   4,C   3,C   2)   -179.3836         0.023613   
     70. D(C   5,C   4,C   3,C   2)      0.2527         0.023613   
     71. D(H  12,C   4,C   3,N  14)      1.0511         0.023613   
     72. D(H  13,C   5,C   4,H  12)     -0.4749         0.029118   
     73. D(C   0,C   5,C   4,H  12)    179.3584         0.029118   
     74. D(C   0,C   5,C   4,C   3)     -0.2687         0.029118   
     75. D(H  13,C   5,C   0,C   6)     -0.2533         0.019350   
     76. D(H  13,C   5,C   4,C   3)    179.8981         0.029118   
     77. D(H  13,C   5,C   0,C   1)    179.8754         0.019350   
     78. D(C   4,C   5,C   0,C   6)    179.9122         0.019350   
     79. D(C   4,C   5,C   0,C   1)      0.0409         0.019350   
     80. D(H   9,C   6,C   0,C   5)     45.9090         0.014121   
     81. D(H   9,C   6,C   0,C   1)   -134.2238         0.014121   
     82. D(H   8,C   6,C   0,C   5)    169.1440         0.014121   
     83. D(H   8,C   6,C   0,C   1)    -10.9887         0.014121   
     84. D(H   7,C   6,C   0,C   5)    -67.6506         0.014121   
     85. D(H   7,C   6,C   0,C   1)    112.2167         0.014121   
     86. D(O  15,N  14,C   3,C   2)    144.2190         0.015859   
     87. D(H  17,N  14,C   3,C   4)    130.5295         0.015859   
     88. D(H  17,N  14,C   3,C   2)    -49.0554         0.015859   
     89. D(O  16,N  14,C   3,C   4)    143.5772         0.015859   
     90. D(O  16,N  14,C   3,C   2)    -36.0078         0.015859   
     91. D(O  15,N  14,C   3,C   4)    -36.1961         0.015859   
     92. D(H  17,O  15,N  14,O  16)     -4.2000         0.095108   
     93. D(H  17,O  15,N  14,C   3)    175.5500         0.095108   
     94. D(H  17,O  16,N  14,O  15)      5.9552         0.093255   
     95. D(H  17,O  16,N  14,C   3)   -173.7960         0.093255   
     96. D(O  15,H  17,O  16,N  14)     -2.7744         0.001500   
     97. D(O  16,H  17,O  15,N  14)      2.1275         0.001500   
     98. D(O  16,H  17,N  14,O  15)   -175.1289         0.001500   
     99. D(O  16,H  17,N  14,C   3)     16.7674         0.001500   
    100. D(O  15,H  17,N  14,O  16)    175.1289         0.001500   
    101. D(O  15,H  17,N  14,C   3)   -168.1037         0.001500   
    -----------------------------------------------------------------

Number of atoms                         .... 18
Number of degrees of freedom            .... 101

         *************************************************************
         *                GEOMETRY OPTIMIZATION CYCLE   1            *
         *************************************************************
---------------------------------
CARTESIAN COORDINATES (ANGSTROEM)
---------------------------------
  C     -5.871550    0.942750    0.124570
  C     -6.866100    1.476480   -0.737880
  C     -7.407720    0.710050   -1.754920
  C     -6.943280   -0.612950   -1.916600
  C     -5.956720   -1.183280   -1.090540
  C     -5.431100   -0.406430   -0.077570
  C     -5.278540    1.741550    1.229820
  H     -5.649820    1.239570    2.325470
  H     -5.601190    2.899250    1.122150
  H     -4.007160    1.577270    1.194190
  H     -7.203390    2.504950   -0.591510
  H     -8.178440    1.097040   -2.423410
  H     -5.627570   -2.208830   -1.267370
  H     -4.664380   -0.819750    0.582990
  N     -7.520240   -1.427320   -2.983430
  O     -6.778650   -2.203610   -3.556650
  O     -8.706760   -1.268580   -3.215280
  H    -13.986510   -5.614510   -8.573340

----------------------------
CARTESIAN COORDINATES (A.U.)
----------------------------
  NO LB      ZA    FRAG     MASS         X           Y           Z
   0 C     6.0000    0    12.011  -11.095621    1.781539    0.235403
   1 C     6.0000    0    12.011  -12.975049    2.790143   -1.394391
   2 C     6.0000    0    12.011  -13.998562    1.341800   -3.316318
   3 C     6.0000    0    12.011  -13.120898   -1.158308   -3.621849
   4 C     6.0000    0    12.011  -11.256569   -2.236075   -2.060822
   5 C     6.0000    0    12.011  -10.263292   -0.768041   -0.146586
   6 C     6.0000    0    12.011   -9.974995    3.291053    2.324023
   7 H     1.0000    0     1.008  -10.676613    2.342448    4.394501
   8 H     1.0000    0     1.008  -10.584715    5.478788    2.120556
   9 H     1.0000    0     1.008   -7.572435    2.980608    2.256692
  10 H     1.0000    0     1.008  -13.612434    4.733669   -1.117792
  11 H     1.0000    0     1.008  -15.455012    2.073105   -4.579581
  12 H     1.0000    0     1.008  -10.634566   -4.174084   -2.394982
  13 H     1.0000    0     1.008   -8.814401   -1.549103    1.101691
  14 N     7.0000    0    14.007  -14.211194   -2.697244   -5.637866
  15 O     8.0000    0    15.999  -12.809792   -4.164219   -6.721094
  16 O     8.0000    0    15.999  -16.453392   -2.397269   -6.075999
  17 H     1.0000    0     1.008  -26.430673  -10.609886  -16.201265

--------------------------------
INTERNAL COORDINATES (ANGSTROEM)
--------------------------------
 C      0   0   0     0.000000000000     0.00000000     0.00000000
 C      1   0   0     1.420499003132     0.00000000     0.00000000
 C      2   1   0     1.383884941352   120.80577183     0.00000000
 C      3   2   1     1.411443918829   118.32821532   359.75755652
 C      4   3   2     1.407462989247   122.90484961     0.00000000
 C      5   4   3     1.380536318899   118.00201427     0.25269519
 C      1   2   3     1.487050726304   121.91305432   180.35624363
 H      7   1   2     1.261063710246   108.33197476   112.21668306
 H      7   1   2     1.206633805842   110.02508982   349.01126261
 H      7   1   2     1.282444743332   107.81119357   225.77624737
 H      2   1   3     1.092217589082   119.25200346   179.99826719
 H      3   2   1     1.091168849720   122.02290922   179.47383778
 H      5   4   3     1.091495017808   119.80366467   180.61639853
 H      6   5   4     1.093175417945   119.84488956   179.89805228
 N      4   3   2     1.460892736446   118.43827036   179.56901173
 O     15   4   3     1.217030427146   117.31419578   144.21902781
 O     15   4   3     1.219336918370   116.78157432   323.99224760
 H     17  15   4     8.687443501457   130.05597366   186.20400678

---------------------------
INTERNAL COORDINATES (A.U.)
---------------------------
 C      0   0   0     0.000000000000     0.00000000     0.00000000
 C      1   0   0     2.684354089428     0.00000000     0.00000000
 C      2   1   0     2.615163540012   120.80577183     0.00000000
 C      3   2   1     2.667242459976   118.32821532   359.75755652
 C      4   3   2     2.659719593307   122.90484961     0.00000000
 C      5   4   3     2.608835560651   118.00201427     0.25269519
 C      1   2   3     2.810118619962   121.91305432   180.35624363
 H      7   1   2     2.383065049792   108.33197476   112.21668306
 H      7   1   2     2.280207436972   110.02508982   349.01126261
 H      7   1   2     2.423469346785   107.81119357   225.77624737
 H      2   1   3     2.063992122017   119.25200346   179.99826719
 H      3   2   1     2.062010291837   122.02290922   179.47383778
 H      5   4   3     2.062626660197   119.80366467   180.61639853
 H      6   5   4     2.065802156252   119.84488956   179.89805228
 N      4   3   2     2.760687182917   118.43827036   179.56901173
 O     15   4   3     2.299854203956   117.31419578   144.21902781
 O     15   4   3     2.304212840699   116.78157432   323.99224760
 H     17  15   4    16.416889021667   130.05597366   186.20400678

---------------------
BASIS SET INFORMATION
---------------------
There are 4 groups of distinct atoms

 Group   1 Type C   : 7s4p1d contracted to 3s2p1d pattern {511/31/1}
 Group   2 Type H   : 4s1p contracted to 2s1p pattern {31/1}
 Group   3 Type N   : 7s4p1d contracted to 3s2p1d pattern {511/31/1}
 Group   4 Type O   : 7s4p1d contracted to 3s2p1d pattern {511/31/1}

Atom   0C    basis set group =>   1
Atom   1C    basis set group =>   1
Atom   2C    basis set group =>   1
Atom   3C    basis set group =>   1
Atom   4C    basis set group =>   1
Atom   5C    basis set group =>   1
Atom   6C    basis set group =>   1
Atom   7H    basis set group =>   2
Atom   8H    basis set group =>   2
Atom   9H    basis set group =>   2
Atom  10H    basis set group =>   2
Atom  11H    basis set group =>   2
Atom  12H    basis set group =>   2
Atom  13H    basis set group =>   2
Atom  14N    basis set group =>   3
Atom  15O    basis set group =>   4
Atom  16O    basis set group =>   4
Atom  17H    basis set group =>   2
---------------------------------
AUXILIARY/J BASIS SET INFORMATION
---------------------------------
There are 4 groups of distinct atoms

 Group   1 Type C   : 12s5p4d2f1g contracted to 6s4p3d1f1g pattern {711111/2111/211/2/1}
 Group   2 Type H   : 5s2p1d contracted to 3s1p1d pattern {311/2/1}
 Group   3 Type N   : 12s5p4d2f1g contracted to 6s4p3d1f1g pattern {711111/2111/211/2/1}
 Group   4 Type O   : 12s5p4d2f1g contracted to 6s4p3d1f1g pattern {711111/2111/211/2/1}

Atom   0C    basis set group =>   1
Atom   1C    basis set group =>   1
Atom   2C    basis set group =>   1
Atom   3C    basis set group =>   1
Atom   4C    basis set group =>   1
Atom   5C    basis set group =>   1
Atom   6C    basis set group =>   1
Atom   7H    basis set group =>   2
Atom   8H    basis set group =>   2
Atom   9H    basis set group =>   2
Atom  10H    basis set group =>   2
Atom  11H    basis set group =>   2
Atom  12H    basis set group =>   2
Atom  13H    basis set group =>   2
Atom  14N    basis set group =>   3
Atom  15O    basis set group =>   4
Atom  16O    basis set group =>   4
Atom  17H    basis set group =>   2
------------------------------------------------------------------------------
                           ORCA GTO INTEGRAL CALCULATION
                           -- RI-GTO INTEGRALS CHOSEN --
------------------------------------------------------------------------------
------------------------------------------------------------------------------
                   ___                                                        
                  /   \      - P O W E R E D   B Y -                         
                 /     \                                                     
                 |  |  |   _    _      __       _____    __    __             
                 |  |  |  | |  | |    /  \     |  _  \  |  |  /  |          
                  \  \/   | |  | |   /    \    | | | |  |  | /  /          
                 / \  \   | |__| |  /  /\  \   | |_| |  |  |/  /          
                |  |  |   |  __  | /  /__\  \  |    /   |      \           
                |  |  |   | |  | | |   __   |  |    \   |  |\   \          
                \     /   | |  | | |  |  |  |  | |\  \  |  | \   \       
                 \___/    |_|  |_| |__|  |__|  |_| \__\ |__|  \__/        
                                                                              
                      - O R C A' S   B I G   F R I E N D -                    
                                      &                                       
                       - I N T E G R A L  F E E D E R -                       
                                                                              
 v1 FN, 2020, v2 2021                                                         
------------------------------------------------------------------------------


Reading SHARK input file para_p_opt_6.SHARKINP.tmp ... ok
----------------------
SHARK INTEGRAL PACKAGE
----------------------

Number of atoms                             ...     18
Number of basis functions                   ...    180
Number of shells                            ...     84
Maximum angular momentum                    ...      2
Integral batch strategy                     ... SHARK/LIBINT Hybrid
RI-J (if used) integral strategy            ... SPLIT-RIJ (Revised 2003 algorithm where possible)
Printlevel                                  ...      1
Contraction scheme used                     ... SEGMENTED contraction
Coulomb Range Separation                    ... NOT USED
Exchange Range Separation                   ... NOT USED
Finite Nucleus Model                        ... NOT USED
Auxiliary Coulomb fitting basis             ... AVAILABLE
   # of basis functions in Aux-J            ...    578
   # of shells in Aux-J                     ...    190
   Maximum angular momentum in Aux-J        ...      4
Auxiliary J/K fitting basis                 ... NOT available
Auxiliary Correlation fitting basis         ... NOT available
Auxiliary 'external' fitting basis          ... NOT available
Integral threshold                          ...     2.500000e-11
Primitive cut-off                           ...     2.500000e-12
Primitive pair pre-selection threshold      ...     2.500000e-12

Calculating pre-screening integrals         ... done (  0.1 sec) Dimension = 84
Organizing shell pair data                  ... done (  0.0 sec)
Shell pair information
Total number of shell pairs                 ...      3570
Shell pairs after pre-screening             ...      2999
Total number of primitive shell pairs       ...     13034
Primitive shell pairs kept                  ...      7893
          la=0 lb=0:    899 shell pairs
          la=1 lb=0:   1082 shell pairs
          la=1 lb=1:    345 shell pairs
          la=2 lb=0:    385 shell pairs
          la=2 lb=1:    240 shell pairs
          la=2 lb=2:     48 shell pairs

Calculating one electron integrals          ... done (  0.0 sec)
Calculating RI/J V-Matrix + Cholesky decomp.... done (  0.0 sec)
Calculating Nuclear repulsion               ... done (  0.0 sec) ENN=    493.580743491764 Eh

SHARK setup successfully completed in   0.3 seconds

Maximum memory used throughout the entire GTOINT-calculation: 24.5 MB
-------------------------------------------------------------------------------
                                 ORCA SCF
-------------------------------------------------------------------------------

------------
SCF SETTINGS
------------
Hamiltonian:
 Density Functional     Method          .... DFT(GTOs)
 Exchange Functional    Exchange        .... B88
   X-Alpha parameter    XAlpha          ....  0.666667
   Becke's b parameter  XBeta           ....  0.004200
 Correlation Functional Correlation     .... LYP
 LDA part of GGA corr.  LDAOpt          .... VWN-5
 Gradients option       PostSCFGGA      .... off
 Hybrid DFT is turned on
   Fraction HF Exchange ScalHFX         ....  0.200000
   Scaling of DF-GGA-X  ScalDFX         ....  0.720000
   Scaling of DF-GGA-C  ScalDFC         ....  0.810000
   Scaling of DF-LDA-C  ScalLDAC        ....  1.000000
   Perturbative correction              ....  0.000000
   Density functional embedding theory  .... OFF
   NL short-range parameter             ....  4.800000
 RI-approximation to the Coulomb term is turned on
   Number of AuxJ basis functions       .... 578
   RIJ-COSX (HFX calculated with COS-X)).... on


General Settings:
 Integral files         IntName         .... para_p_opt_6
 Hartree-Fock type      HFTyp           .... RHF
 Total Charge           Charge          ....    1
 Multiplicity           Mult            ....    1
 Number of Electrons    NEL             ....   72
 Basis Dimension        Dim             ....  180
 Nuclear Repulsion      ENuc            ....    493.5807434918 Eh

Convergence Acceleration:
 DIIS                   CNVDIIS         .... on
   Start iteration      DIISMaxIt       ....    12
   Startup error        DIISStart       ....  0.200000
   # of expansion vecs  DIISMaxEq       ....     5
   Bias factor          DIISBfac        ....   1.050
   Max. coefficient     DIISMaxC        ....  10.000
 Trust-Rad. Augm. Hess. CNVTRAH         .... auto
   Auto Start mean grad. ratio tolernc. ....  1.125000
   Auto Start start iteration           ....    20
   Auto Start num. interpolation iter.  ....    10
   Max. Number of Micro iterations      ....    16
   Max. Number of Macro iterations      .... Maxiter - #DIIS iter
   Number of Davidson start vectors     ....     2
   Converg. threshold I  (grad. norm)   ....   1.000e-05
   Converg. threshold II (energy diff.) ....   1.000e-08
   Grad. Scal. Fac. for Micro threshold ....   0.100
   Minimum threshold for Micro iter.    ....   0.010
   NR start threshold (gradient norm)   ....   0.001
   Initial trust radius                 ....   0.400
   Minimum AH scaling param. (alpha)    ....   1.000
   Maximum AH scaling param. (alpha)    .... 1000.000
   Orbital update algorithm             .... Taylor
   White noise on init. David. guess    .... on
   Maximum white noise                  ....   0.010
   Quad. conv. algorithm                .... NR
 SOSCF                  CNVSOSCF        .... on
   Start iteration      SOSCFMaxIt      ....   150
   Startup grad/error   SOSCFStart      ....  0.003300
 Level Shifting         CNVShift        .... on
   Level shift para.    LevelShift      ....    0.2500
   Turn off err/grad.   ShiftErr        ....    0.0010
 Zerner damping         CNVZerner       .... off
 Static damping         CNVDamp         .... on
   Fraction old density DampFac         ....    0.7000
   Max. Damping (<1)    DampMax         ....    0.9800
   Min. Damping (>=0)   DampMin         ....    0.0000
   Turn off err/grad.   DampErr         ....    0.1000
 Fernandez-Rico         CNVRico         .... off

SCF Procedure:
 Maximum # iterations   MaxIter         ....  1000
 SCF integral mode      SCFMode         .... Direct
   Integral package                     .... SHARK and LIBINT hybrid scheme
 Reset frequency        DirectResetFreq ....    20
 Integral Threshold     Thresh          ....  2.500e-11 Eh
 Primitive CutOff       TCut            ....  2.500e-12 Eh

Convergence Tolerance:
 Convergence Check Mode ConvCheckMode   .... Total+1el-Energy
 Convergence forced     ConvForced      .... 0
 Energy Change          TolE            ....  1.000e-08 Eh
 1-El. energy change                    ....  1.000e-05 Eh
 Orbital Gradient       TolG            ....  1.000e-05
 Orbital Rotation angle TolX            ....  1.000e-05
 DIIS Error             TolErr          ....  5.000e-07


Diagonalization of the overlap matrix:
Smallest eigenvalue                        ... 2.972e-04
Time for diagonalization                   ...    0.009 sec
Threshold for overlap eigenvalues          ... 1.000e-08
Number of eigenvalues below threshold      ... 0
Time for construction of square roots      ...    0.006 sec
Total time needed                          ...    0.015 sec

Time for model grid setup =    0.630 sec

------------------------------
INITIAL GUESS: MODEL POTENTIAL
------------------------------
Loading Hartree-Fock densities                     ... done
Calculating cut-offs                               ... done
Initializing the effective Hamiltonian             ... done
Setting up the integral package (SHARK)            ... done
Starting the Coulomb interaction                   ... done (   0.7 sec)
Reading the grid                                   ... done
Mapping shells                                     ... done
Starting the XC term evaluation                    ... done (   1.1 sec)
  promolecular density results
     # of electrons  =     72.990931088
     EX              =    -61.207565714
     EC              =     -2.474311772
     EX+EC           =    -63.681877485
Transforming the Hamiltonian                       ... done (   0.0 sec)
Diagonalizing the Hamiltonian                      ... done (   0.0 sec)
Back transforming the eigenvectors                 ... done (   0.0 sec)
Now organizing SCF variables                       ... done
                      ------------------
                      INITIAL GUESS DONE (   2.5 sec)
                      ------------------
-------------------
DFT GRID GENERATION
-------------------

General Integration Accuracy     IntAcc      ... 4.388
Radial Grid Type                 RadialGrid  ... OptM3 with GC (2021)
Angular Grid (max. ang.)         AngularGrid ... 4 (Lebedev-302)
Angular grid pruning method      GridPruning ... 4 (adaptive)
Weight generation scheme         WeightScheme... Becke
Basis function cutoff            BFCut       ... 1.0000e-11
Integration weight cutoff        WCut        ... 1.0000e-14
Angular grids for H and He will be reduced by one unit
Partially contracted basis set               ... off
Rotationally invariant grid construction     ... off

Total number of grid points                  ...    86298
Total number of batches                      ...     1358
Average number of points per batch           ...       63
Average number of grid points per atom       ...     4794
Time for grid setup =    3.935 sec

--------------------
COSX GRID GENERATION
--------------------

GRIDX 1
-------
General Integration Accuracy     IntAcc      ... 3.816
Radial Grid Type                 RadialGrid  ... OptM3 with GC (2021)
Angular Grid (max. ang.)         AngularGrid ... 1 (Lebedev-50)
Angular grid pruning method      GridPruning ... 4 (adaptive)
Weight generation scheme         WeightScheme... Becke
Basis function cutoff            BFCut       ... 1.0000e-11
Integration weight cutoff        WCut        ... 1.0000e-14
Angular grids for H and He will be reduced by one unit
Partially contracted basis set               ... on
Rotationally invariant grid construction     ... off

Total number of grid points                  ...    11018
Total number of batches                      ...      180
Average number of points per batch           ...       61
Average number of grid points per atom       ...      612
UseSFitting                                  ... on

GRIDX 2
-------
General Integration Accuracy     IntAcc      ... 4.020
Radial Grid Type                 RadialGrid  ... OptM3 with GC (2021)
Angular Grid (max. ang.)         AngularGrid ... 2 (Lebedev-110)
Angular grid pruning method      GridPruning ... 4 (adaptive)
Weight generation scheme         WeightScheme... Becke
Basis function cutoff            BFCut       ... 1.0000e-11
Integration weight cutoff        WCut        ... 1.0000e-14
Angular grids for H and He will be reduced by one unit
Partially contracted basis set               ... on
Rotationally invariant grid construction     ... off

Total number of grid points                  ...    24238
Total number of batches                      ...      389
Average number of points per batch           ...       62
Average number of grid points per atom       ...     1347
UseSFitting                                  ... on

GRIDX 3
-------
General Integration Accuracy     IntAcc      ... 4.338
Radial Grid Type                 RadialGrid  ... OptM3 with GC (2021)
Angular Grid (max. ang.)         AngularGrid ... 3 (Lebedev-194)
Angular grid pruning method      GridPruning ... 4 (adaptive)
Weight generation scheme         WeightScheme... Becke
Basis function cutoff            BFCut       ... 1.0000e-11
Integration weight cutoff        WCut        ... 1.0000e-14
Angular grids for H and He will be reduced by one unit
Partially contracted basis set               ... on
Rotationally invariant grid construction     ... off

Total number of grid points                  ...    53319
Total number of batches                      ...      843
Average number of points per batch           ...       63
Average number of grid points per atom       ...     2962
UseSFitting                                  ... on

Time for X-Grid setup             =    5.729 sec

--------------
SCF ITERATIONS
--------------
ITER       Energy         Delta-E        Max-DP      RMS-DP      [F,P]     Damp
               ***  Starting incremental Fock matrix formation  ***
  0   -475.1714484510   0.000000000000 0.20729118  0.00355621  0.2227298 0.7000
  1   -475.4208667837  -0.249418332713 0.15063046  0.00222817  0.0605584 0.7000
                               ***Turning on DIIS***
  2   -475.4209538310  -0.000087047305 0.37987011  0.00469397  0.0360659 0.0000
  3   -475.0396237717   0.381330059351 0.18936180  0.00236325  0.2005516 0.7000
  4   -475.3922029067  -0.352579134997 0.44184419  0.00550522  0.0587235 0.0000
  5   -475.3943114434  -0.002108536723 0.01207160  0.00044893  0.0490244 0.0000
  6   -475.4039053459  -0.009593902502 0.00567869  0.00022393  0.0413868 0.0000
  7   -475.4075227169  -0.003617371017 0.01237982  0.00058616  0.0378238 0.0000
  8   -475.4148393724  -0.007316655498 0.00774169  0.00033583  0.0258232 0.0000
  9   -475.4179460771  -0.003106704667 0.01634360  0.00076176  0.0208512 0.0000
 10   -475.4217733418  -0.003827264760 0.00798013  0.00028688  0.0069341 0.0000
 11   -475.4221054678  -0.000332125943 0.00237351  0.00008370  0.0033697 0.0000
                      *** Initiating the SOSCF procedure ***
                           *** Shutting down DIIS ***
                      *** Re-Reading the Fockian *** 
                      *** Removing any level shift *** 
ITER      Energy       Delta-E        Grad      Rot      Max-DP    RMS-DP
 12   -475.42216220  -0.0000567314  0.000317  0.000317  0.753686  0.007772
               *** Restarting incremental Fock matrix formation ***
 13   -474.91805265   0.5041095495  0.198508  0.760080  0.269442  0.003648
 14   -474.96798079  -0.0499281383  0.063689  0.708994  0.701326  0.006705
 15   -475.00022863  -0.0322478404  0.077946  1.060126  0.398650  0.012579
 16   -474.55662763   0.4436009959  0.106772  1.008130  0.086219  0.002515
 17   -474.71418807  -0.1575604411  0.077441  0.700013  0.536312  0.018007
 18   -473.84822254   0.8659655372  0.237695  2.241296  0.066573  0.002415
 19   -474.17162224  -0.3233997078  0.178328  2.056609  0.219891  0.006554

 WARNING: the maximum gradient error descreased on average only by a factor   0.6
          during the last 20 iterations

                      *** Initiating the TRAH-SCF procedure ***

              ***Rediagonalizing the Fockian in SOSCF/NRSCF***

TRAH GRIDX
----------

General Integration Accuracy     IntAcc      ... 3.067
Radial Grid Type                 RadialGrid  ... OptM3 with GC (2021)
Angular Grid (max. ang.)         AngularGrid ... 1 (Lebedev-50)
Angular grid pruning method      GridPruning ... 4 (adaptive)
Weight generation scheme         WeightScheme... Becke
Basis function cutoff            BFCut       ... 1.0000e-11
Integration weight cutoff        WCut        ... 1.0000e-14
Angular grids for H and He will be reduced by one unit
Partially contracted basis set               ... on
Rotationally invariant grid construction     ... off

Total number of grid points                  ...     5819
Total number of batches                      ...      102
Average number of points per batch           ...       57
Average number of grid points per atom       ...      323


TRAH GRID
---------

General Integration Accuracy     IntAcc      ... 3.467
Radial Grid Type                 RadialGrid  ... OptM3 with GC (2021)
Angular Grid (max. ang.)         AngularGrid ... 1 (Lebedev-50)
Angular grid pruning method      GridPruning ... 4 (adaptive)
Weight generation scheme         WeightScheme... Becke
Basis function cutoff            BFCut       ... 1.0000e-11
Integration weight cutoff        WCut        ... 1.0000e-14
Angular grids for H and He will be reduced by one unit
Partially contracted basis set               ... off
Rotationally invariant grid construction     ... off

Total number of grid points                  ...    12711
Total number of batches                      ...      208
Average number of points per batch           ...       61
Average number of grid points per atom       ...      706

 --------------------------------------------------------------------------------------------
   Iter.        energy            ||Error||_2        Shift      TRadius  Mac/Mic        Rej.
 --------------------------------------------------------------------------------------------
WARNING: 35 diagonal Hessian elements are negative!
    0       -473.987963003585     3.572933e+00                     0.400 (TRAH MAcro)   No
WARNING : negative HOMO - LUMO gap : -0.758641
    0     dE    -7.549603e-01     2.528090e+00    -1.3267e+00      0.372 (TRAH MIcro)
    0     dE    -9.244566e-01     6.375275e-01    -3.5609e+00      0.400 (TRAH MIcro)
    0     dE    -9.310869e-01     2.821017e-01    -3.5723e+00      0.400 (TRAH MIcro)
    0     dE    -9.330827e-01     8.868316e-02    -3.5471e+00      0.400 (TRAH MIcro)
    0     dE    -9.334093e-01     3.756037e-02    -3.5339e+00      0.400 (TRAH MIcro)
    0     dE    -9.334895e-01     1.158167e-02    -3.5267e+00      0.400 (TRAH MIcro)
    0     dE    -9.334952e-01     6.439554e-03    -3.5267e+00      0.400 (TRAH MIcro)
WARNING: 23 diagonal Hessian elements are negative!
    1       -474.880322897842     1.129411e+00                     0.480 (TRAH MAcro)   No
WARNING : negative HOMO - LUMO gap : -0.691519
    1     dE    -1.095097e-01     6.965491e-01    -2.1159e-01      0.187 (TRAH MIcro)
    1     dE    -2.154484e-01     6.857587e-01    -3.5521e-01      0.462 (TRAH MIcro)
    1     dE    -1.797480e-01     5.294346e-01    -1.9072e+00      0.271 (TRAH MIcro)
    1     dE    -1.197478e-01     2.062535e-01    -3.6890e+00      0.153 (TRAH MIcro)
    1     dE    -1.207811e-01     2.435777e-02    -3.7596e+00      0.150 (TRAH MIcro)
    1     dE    -1.208416e-01     7.967045e-03    -3.7604e+00      0.151 (TRAH MIcro)
WARNING: 22 diagonal Hessian elements are negative!
    2       -475.000568971183     5.548098e-01                     0.576 (TRAH MAcro)   No
WARNING : negative HOMO - LUMO gap : -0.672389
    2     dE    -4.850451e-02     7.134881e-01    -9.4138e-02      0.175 (TRAH MIcro)
    2     dE    -1.437696e-01     2.660015e+00    -2.5565e-01      0.576 (TRAH MIcro)
    2     dE    -1.303986e-01     7.098092e-01    -2.0779e+00      0.290 (TRAH MIcro)
    2     dE    -4.213153e-02     1.187195e-01    -3.8064e+00      0.096 (TRAH MIcro)
    2     dE    -4.295102e-02     2.068117e-02    -3.8787e+00      0.096 (TRAH MIcro)
    2     dE    -4.297788e-02     5.461575e-03    -3.8805e+00      0.096 (TRAH MIcro)
WARNING: 22 diagonal Hessian elements are negative!
    3       -475.043471020645     3.709661e-01                     0.691 (TRAH MAcro)   No
WARNING : negative HOMO - LUMO gap : -0.658024
    3     dE    -6.342576e-02     2.431510e+00    -1.1261e-01      0.356 (TRAH MIcro)
    3     dE    -4.735696e-01     2.435331e+00    -1.7067e+00      0.691 (TRAH MIcro)
    3     dE    -6.905476e-01     4.575466e-01    -2.7122e+00      0.691 (TRAH MIcro)
    3     dE    -6.683187e-01     1.138486e-01    -2.7671e+00      0.674 (TRAH MIcro)
    3     dE    -6.659835e-01     2.353845e-02    -2.7702e+00      0.672 (TRAH MIcro)
    3     dE    -6.649629e-01     7.461807e-03    -2.7703e+00      0.672 (TRAH MIcro)
WARNING: 1 diagonal Hessian elements are negative!
    4       -475.431966172810     6.647981e-01                     0.691 (TRAH MAcro)   No
WARNING : negative HOMO - LUMO gap : -0.039573
    4     dE    -7.125091e-02     1.033347e+00    -1.3643e-01      0.211 (TRAH MIcro)
    4     dE    -1.067277e-01     3.611079e-01    -1.9358e-01      0.320 (TRAH MIcro)
    4     dE    -1.123851e-01     1.545465e-01    -2.0217e-01      0.334 (TRAH MIcro)
    4     dE    -1.136259e-01     3.766991e-02    -2.0391e-01      0.338 (TRAH MIcro)
    4     dE    -1.137310e-01     1.105938e-02    -2.0404e-01      0.339 (TRAH MIcro)
    4     dE    -1.137597e-01     5.657689e-03    -2.0406e-01      0.339 (TRAH MIcro)
    5       -475.537475151075     8.488129e-02                     0.829 (TRAH MAcro)   No
WARNING : small    HOMO - LUMO gap : 0.001990
    5     dE    -1.114889e-03     1.099747e-01    -2.2282e-03      0.026 (TRAH MIcro)
    5     dE    -1.222046e-03     1.082986e-01    -2.4418e-03      0.031 (TRAH MIcro)
    5     dE    -3.802448e-03     7.387785e-02    -7.4884e-03      0.125 (TRAH MIcro)
    5     dE    -4.229805e-03     2.675000e-02    -8.3088e-03      0.135 (TRAH MIcro)
    5     dE    -4.301797e-03     1.304286e-02    -8.4386e-03      0.140 (TRAH MIcro)
    5     dE    -4.315364e-03     6.963874e-03    -8.4609e-03      0.142 (TRAH MIcro)
    6       -475.541218066911     3.494920e-02                     0.995 (TRAH MAcro)   No
WARNING : small    HOMO - LUMO gap : 0.013642
    6     dE    -1.605427e-04     4.598310e-02    -3.2106e-04      0.009 (TRAH MIcro)
    6     dE    -2.184231e-04     1.032812e-02    -4.3676e-04      0.014 (TRAH MIcro)
    6     dE    -2.361918e-04     8.378891e-03    -4.7227e-04      0.016 (TRAH MIcro)
    6     dE    -2.436508e-04     4.183094e-03    -4.8715e-04      0.017 (TRAH MIcro)
    6     dE    -2.447959e-04     1.387601e-03    -4.8943e-04      0.018 (TRAH MIcro)
    7       -475.541467607862     1.790511e-03                     1.194 (TRAH MAcro)   No
WARNING : small    HOMO - LUMO gap : 0.009205
    7     dE    -1.526150e-07     2.649092e-03    -3.0524e-07      0.000 (TRAH MIcro)
    7     dE    -2.433265e-07     1.948101e-03    -4.8665e-07      0.000 (TRAH MIcro)
    7     dE    -8.999059e-07     1.801584e-03    -1.7998e-06      0.002 (TRAH MIcro)
    7     dE    -1.150411e-06     4.960560e-04    -2.3008e-06      0.003 (TRAH MIcro)
    7     dE    -1.164126e-06     2.709283e-04    -2.3282e-06      0.004 (TRAH MIcro)
    7     dE    -1.170763e-06     1.229114e-04    -2.3415e-06      0.004 (TRAH MIcro)
    8       -475.541468777569     1.326193e-04                           (NR   MAcro)
WARNING : small    HOMO - LUMO gap : 0.009102
    8     dE    -2.232701e-10     1.196900e-04                           (NR   MIcro)
    8     dE    -1.799065e-09     6.141831e-05                           (NR   MIcro)
    8     dE    -2.325932e-09     4.802943e-05                           (NR   MIcro)
    8     dE    -2.564442e-09     1.837407e-05                           (NR   MIcro)
    8     dE    -2.594792e-09     7.932950e-06                           (NR   MIcro)
    8     dE    -2.602262e-09     4.527254e-06                           (NR   MIcro)
    8     dE    -2.605031e-09     2.238539e-06                           (NR   MIcro)
    8     dE    -2.605339e-09     7.395526e-07                           (NR   MIcro)
    9       -475.541468779837     7.477355e-07                           (NR   MAcro)
WARNING : small    HOMO - LUMO gap : 0.009099

               *****************************************************
               *                     SUCCESS                       *
               *           SCF CONVERGED AFTER  86 CYCLES          *
               *****************************************************

Old exchange energy                            =    -12.248523465 Eh
New exchange energy                            =    -12.248564081 Eh
Exchange energy change after final integration =     -0.000040616 Eh
Total energy after final integration           =   -475.541509396 Eh
Final COS-X integration done in                =    24.184 sec

----------------
TOTAL SCF ENERGY
----------------

Total Energy       :         -475.54150940 Eh          -12940.14233 eV

Components:
Nuclear Repulsion  :          493.58074349 Eh           13431.01485 eV
Electronic Energy  :         -969.12225289 Eh          -26371.15718 eV
One Electron Energy:        -1613.13164272 Eh          -43895.54360 eV
Two Electron Energy:          644.00938983 Eh           17524.38642 eV
Max COSX asymmetry :            0.00000278 Eh               0.00008 eV

Virial components:
Potential Energy   :         -946.55530847 Eh          -25757.07941 eV
Kinetic Energy     :          471.01379908 Eh           12816.93707 eV
Virial Ratio       :            2.00961269


DFT components:
N(Alpha)           :       35.999887899078 electrons
N(Beta)            :       35.999887899078 electrons
N(Total)           :       71.999775798156 electrons
E(X)               :      -48.894577191862 Eh       
E(C)               :       -2.885279951876 Eh       
E(XC)              :      -51.779857143737 Eh       
DFET-embed. en.    :        0.000000000000 Eh       

---------------
SCF CONVERGENCE
---------------

  Last Energy change         ...   -2.2681e-09  Tolerance :   1.0000e-08
  Last Orbital Gradient      ...    7.4774e-07  Tolerance :   1.0000e-05
  Last Orbital Rotation      ...    1.3384e-04

             **** THE GBW FILE WAS UPDATED (para_p_opt_6.gbw) ****
             **** DENSITY para_p_opt_6.scfp WAS UPDATED ****
             **** ENERGY FILE WAS UPDATED (para_p_opt_6.en.tmp) ****
             **** THE GBW FILE WAS UPDATED (para_p_opt_6.gbw) ****
             **** DENSITY para_p_opt_6.scfp WAS UPDATED ****
----------------
ORBITAL ENERGIES
----------------

  NO   OCC          E(Eh)            E(eV) 
   0   2.0000     -19.315149      -525.5919 
   1   2.0000     -19.314943      -525.5863 
   2   2.0000     -14.704463      -400.1288 
   3   2.0000     -10.418181      -283.4931 
   4   2.0000     -10.392891      -282.8049 
   5   2.0000     -10.373573      -282.2793 
   6   2.0000     -10.372691      -282.2553 
   7   2.0000     -10.369407      -282.1659 
   8   2.0000     -10.367228      -282.1066 
   9   2.0000     -10.364421      -282.0302 
  10   2.0000      -1.372523       -37.3482 
  11   2.0000      -1.199276       -32.6339 
  12   2.0000      -1.038473       -28.2583 
  13   2.0000      -0.964590       -26.2478 
  14   2.0000      -0.918396       -24.9908 
  15   2.0000      -0.878357       -23.9013 
  16   2.0000      -0.785904       -21.3855 
  17   2.0000      -0.781181       -21.2570 
  18   2.0000      -0.730492       -19.8777 
  19   2.0000      -0.696329       -18.9481 
  20   2.0000      -0.687175       -18.6990 
  21   2.0000      -0.655736       -17.8435 
  22   2.0000      -0.628226       -17.0949 
  23   2.0000      -0.623844       -16.9757 
  24   2.0000      -0.602560       -16.3965 
  25   2.0000      -0.596824       -16.2404 
  26   2.0000      -0.563193       -15.3253 
  27   2.0000      -0.530844       -14.4450 
  28   2.0000      -0.527904       -14.3650 
  29   2.0000      -0.515922       -14.0390 
  30   2.0000      -0.505258       -13.7488 
  31   2.0000      -0.457369       -12.4456 
  32   2.0000      -0.453478       -12.3398 
  33   2.0000      -0.443468       -12.0674 
  34   2.0000      -0.430601       -11.7173 
  35   2.0000      -0.399257       -10.8643 
  36   0.0000      -0.390158       -10.6167 
  37   0.0000      -0.229107        -6.2343 
  38   0.0000      -0.177848        -4.8395 
  39   0.0000      -0.165688        -4.5086 
  40   0.0000      -0.083397        -2.2694 
  41   0.0000      -0.061788        -1.6813 
  42   0.0000      -0.053496        -1.4557 
  43   0.0000      -0.045481        -1.2376 
  44   0.0000      -0.013670        -0.3720 
  45   0.0000       0.002227         0.0606 
  46   0.0000       0.011782         0.3206 
  47   0.0000       0.022911         0.6234 
  48   0.0000       0.033585         0.9139 
  49   0.0000       0.067402         1.8341 
  50   0.0000       0.114035         3.1031 
  51   0.0000       0.123457         3.3594 
  52   0.0000       0.135492         3.6869 
  53   0.0000       0.141395         3.8476 
  54   0.0000       0.160296         4.3619 
  55   0.0000       0.188768         5.1366 
  56   0.0000       0.234354         6.3771 
  57   0.0000       0.246948         6.7198 
  58   0.0000       0.257012         6.9936 
  59   0.0000       0.270117         7.3503 
  60   0.0000       0.291125         7.9219 
  61   0.0000       0.293214         7.9788 
  62   0.0000       0.299105         8.1390 
  63   0.0000       0.302844         8.2408 
  64   0.0000       0.320875         8.7315 
  65   0.0000       0.324896         8.8409 
  66   0.0000       0.351205         9.5568 
  67   0.0000       0.373802        10.1717 
  68   0.0000       0.398537        10.8448 
  69   0.0000       0.416035        11.3209 
  70   0.0000       0.420135        11.4325 
  71   0.0000       0.425831        11.5875 
  72   0.0000       0.458972        12.4893 
  73   0.0000       0.466525        12.6948 
  74   0.0000       0.482609        13.1325 
  75   0.0000       0.484816        13.1925 
  76   0.0000       0.490498        13.3471 
  77   0.0000       0.500782        13.6270 
  78   0.0000       0.519274        14.1302 
  79   0.0000       0.525890        14.3102 
  80   0.0000       0.536627        14.6024 
  81   0.0000       0.546561        14.8727 
  82   0.0000       0.553179        15.0528 
  83   0.0000       0.568950        15.4819 
  84   0.0000       0.606344        16.4995 
  85   0.0000       0.620328        16.8800 
  86   0.0000       0.640796        17.4369 
  87   0.0000       0.664437        18.0803 
  88   0.0000       0.673960        18.3394 
  89   0.0000       0.743952        20.2440 
  90   0.0000       0.759342        20.6627 
  91   0.0000       0.784025        21.3344 
  92   0.0000       0.814747        22.1704 
  93   0.0000       0.827718        22.5234 
  94   0.0000       0.834965        22.7206 
  95   0.0000       0.888109        24.1667 
  96   0.0000       0.899373        24.4732 
  97   0.0000       0.959491        26.1091 
  98   0.0000       0.973457        26.4891 
  99   0.0000       0.990696        26.9582 
 100   0.0000       1.005144        27.3514 
 101   0.0000       1.026792        27.9404 
 102   0.0000       1.067819        29.0568 
 103   0.0000       1.079281        29.3687 
 104   0.0000       1.090925        29.6856 
 105   0.0000       1.104042        30.0425 
 106   0.0000       1.113947        30.3120 
 107   0.0000       1.129324        30.7305 
 108   0.0000       1.205415        32.8010 
 109   0.0000       1.205444        32.8018 
 110   0.0000       1.205446        32.8018 
 111   0.0000       1.223848        33.3026 
 112   0.0000       1.240455        33.7545 
 113   0.0000       1.300435        35.3866 
 114   0.0000       1.324595        36.0441 
 115   0.0000       1.349888        36.7323 
 116   0.0000       1.354226        36.8504 
 117   0.0000       1.424573        38.7646 
 118   0.0000       1.440515        39.1984 
 119   0.0000       1.485982        40.4356 
 120   0.0000       1.507664        41.0256 
 121   0.0000       1.525956        41.5234 
 122   0.0000       1.552690        42.2508 
 123   0.0000       1.564757        42.5792 
 124   0.0000       1.572942        42.8019 
 125   0.0000       1.582585        43.0643 
 126   0.0000       1.583534        43.0902 
 127   0.0000       1.590746        43.2864 
 128   0.0000       1.635319        44.4993 
 129   0.0000       1.645841        44.7856 
 130   0.0000       1.664903        45.3043 
 131   0.0000       1.726088        46.9692 
 132   0.0000       1.742529        47.4166 
 133   0.0000       1.755342        47.7653 
 134   0.0000       1.789203        48.6867 
 135   0.0000       1.811383        49.2902 
 136   0.0000       1.819271        49.5049 
 137   0.0000       1.823968        49.6327 
 138   0.0000       1.894806        51.5603 
 139   0.0000       1.921833        52.2957 
 140   0.0000       1.928944        52.4892 
 141   0.0000       1.948029        53.0086 
 142   0.0000       1.968586        53.5679 
 143   0.0000       2.015191        54.8361 
 144   0.0000       2.042942        55.5913 
 145   0.0000       2.059515        56.0422 
 146   0.0000       2.087595        56.8064 
 147   0.0000       2.119764        57.6817 
 148   0.0000       2.175409        59.1959 
 149   0.0000       2.186901        59.5086 
 150   0.0000       2.200994        59.8921 
 151   0.0000       2.227539        60.6144 
 152   0.0000       2.244426        61.0739 
 153   0.0000       2.250486        61.2388 
 154   0.0000       2.355144        64.0867 
 155   0.0000       2.380456        64.7755 
 156   0.0000       2.429819        66.1187 
 157   0.0000       2.448765        66.6343 
 158   0.0000       2.472122        67.2699 
 159   0.0000       2.485117        67.6235 
 160   0.0000       2.497954        67.9728 
 161   0.0000       2.517267        68.4983 
 162   0.0000       2.525673        68.7270 
 163   0.0000       2.560329        69.6701 
 164   0.0000       2.584457        70.3267 
 165   0.0000       2.587510        70.4097 
 166   0.0000       2.603886        70.8553 
 167   0.0000       2.645430        71.9858 
 168   0.0000       2.688687        73.1629 
 169   0.0000       2.708516        73.7025 
 170   0.0000       2.801020        76.2196 
 171   0.0000       2.893526        78.7368 
 172   0.0000       2.924337        79.5753 
 173   0.0000       2.999410        81.6181 
 174   0.0000       3.119708        84.8916 
 175   0.0000       3.153764        85.8183 
 176   0.0000       3.230069        87.8946 
 177   0.0000       3.410303        92.7991 
 178   0.0000       3.588370        97.6445 
 179   0.0000       3.611928        98.2855 

                    ********************************
                    * MULLIKEN POPULATION ANALYSIS *
                    ********************************

-----------------------
MULLIKEN ATOMIC CHARGES
-----------------------
   0 C :    0.021470
   1 C :    0.021051
   2 C :    0.065473
   3 C :    0.135776
   4 C :    0.060230
   5 C :    0.026320
   6 C :   -0.101039
   7 H :    0.138765
   8 H :    0.103356
   9 H :    0.125097
  10 H :    0.038374
  11 H :    0.050668
  12 H :    0.050890
  13 H :    0.040193
  14 N :    0.239814
  15 O :   -0.161421
  16 O :   -0.165709
  17 H :    0.310692
Sum of atomic charges:    1.0000000

--------------------------------
MULLIKEN REDUCED ORBITAL CHARGES
--------------------------------
  0 C s       :     3.102914  s :     3.102914
      pz      :     0.931902  p :     2.831597
      px      :     0.907044
      py      :     0.992651
      dz2     :     0.009004  d :     0.044019
      dxz     :     0.006793
      dyz     :     0.009769
      dx2y2   :     0.009976
      dxy     :     0.008476
  1 C s       :     3.219664  s :     3.219664
      pz      :     0.927682  p :     2.726124
      px      :     0.924247
      py      :     0.874196
      dz2     :     0.006668  d :     0.033161
      dxz     :     0.006165
      dyz     :     0.007343
      dx2y2   :     0.006593
      dxy     :     0.006391
  2 C s       :     3.244261  s :     3.244261
      pz      :     0.870902  p :     2.656616
      px      :     0.857144
      py      :     0.928570
      dz2     :     0.006469  d :     0.033649
      dxz     :     0.005584
      dyz     :     0.007077
      dx2y2   :     0.007626
      dxy     :     0.006893
  3 C s       :     3.035476  s :     3.035476
      pz      :     0.909308  p :     2.779378
      px      :     0.923427
      py      :     0.946643
      dz2     :     0.008415  d :     0.049371
      dxz     :     0.007334
      dyz     :     0.013646
      dx2y2   :     0.009017
      dxy     :     0.010958
  4 C s       :     3.238930  s :     3.238930
      pz      :     0.927762  p :     2.667161
      px      :     0.912433
      py      :     0.826966
      dz2     :     0.006731  d :     0.033679
      dxz     :     0.006349
      dyz     :     0.007635
      dx2y2   :     0.007033
      dxy     :     0.005930
  5 C s       :     3.227493  s :     3.227493
      pz      :     0.900986  p :     2.713066
      px      :     0.899419
      py      :     0.912660
      dz2     :     0.006175  d :     0.033121
      dxz     :     0.005300
      dyz     :     0.007918
      dx2y2   :     0.006889
      dxy     :     0.006839
  6 C s       :     3.191967  s :     3.191967
      pz      :     0.940552  p :     2.886218
      px      :     0.973279
      py      :     0.972387
      dz2     :     0.004718  d :     0.022855
      dxz     :     0.003618
      dyz     :     0.005984
      dx2y2   :     0.005037
      dxy     :     0.003498
  7 H s       :     0.843370  s :     0.843370
      pz      :     0.010399  p :     0.017865
      px      :     0.003683
      py      :     0.003783
  8 H s       :     0.878322  s :     0.878322
      pz      :     0.002689  p :     0.018323
      px      :     0.003172
      py      :     0.012461
  9 H s       :     0.858026  s :     0.858026
      pz      :     0.002568  p :     0.016878
      px      :     0.012000
      py      :     0.002310
 10 H s       :     0.938470  s :     0.938470
      pz      :     0.003685  p :     0.023156
      px      :     0.004849
      py      :     0.014622
 11 H s       :     0.925739  s :     0.925739
      pz      :     0.008316  p :     0.023593
      px      :     0.010507
      py      :     0.004770
 12 H s       :     0.925513  s :     0.925513
      pz      :     0.003925  p :     0.023597
      px      :     0.004744
      py      :     0.014928
 13 H s       :     0.936727  s :     0.936727
      pz      :     0.008125  p :     0.023080
      px      :     0.009888
      py      :     0.005066
 14 N s       :     3.297129  s :     3.297129
      pz      :     1.155388  p :     3.344765
      px      :     1.043984
      py      :     1.145393
      dz2     :     0.016328  d :     0.118292
      dxz     :     0.030269
      dyz     :     0.011587
      dx2y2   :     0.028502
      dxy     :     0.031606
 15 O s       :     3.875343  s :     3.875343
      pz      :     1.465710  p :     4.262865
      px      :     1.488910
      py      :     1.308245
      dz2     :     0.003612  d :     0.023213
      dxz     :     0.004761
      dyz     :     0.004389
      dx2y2   :     0.004324
      dxy     :     0.006127
 16 O s       :     3.875578  s :     3.875578
      pz      :     1.569779  p :     4.267125
      px      :     1.105317
      py      :     1.592029
      dz2     :     0.002983  d :     0.023006
      dxz     :     0.005835
      dyz     :     0.000465
      dx2y2   :     0.008001
      dxy     :     0.005722
 17 H s       :     0.689307  s :     0.689307
      pz      :     0.000000  p :     0.000000
      px      :     0.000000
      py      :     0.000000


                     *******************************
                     * LOEWDIN POPULATION ANALYSIS *
                     *******************************

----------------------
LOEWDIN ATOMIC CHARGES
----------------------
   0 C :    0.061023
   1 C :    0.019054
   2 C :    0.036418
   3 C :    0.050610
   4 C :    0.023424
   5 C :    0.034207
   6 C :   -0.071426
   7 H :    0.109066
   8 H :    0.070964
   9 H :    0.100362
  10 H :    0.054618
  11 H :    0.062253
  12 H :    0.062479
  13 H :    0.054780
  14 N :    0.275505
  15 O :   -0.125146
  16 O :   -0.128882
  17 H :    0.310692

-------------------------------
LOEWDIN REDUCED ORBITAL CHARGES
-------------------------------
  0 C s       :     2.882103  s :     2.882103
      pz      :     0.969635  p :     2.951409
      px      :     0.937190
      py      :     1.044584
      dz2     :     0.019346  d :     0.105465
      dxz     :     0.016787
      dyz     :     0.024304
      dx2y2   :     0.023419
      dxy     :     0.021610
  1 C s       :     2.866049  s :     2.866049
      pz      :     1.003463  p :     3.027716
      px      :     0.984396
      py      :     1.039858
      dz2     :     0.016392  d :     0.087181
      dxz     :     0.017684
      dyz     :     0.019917
      dx2y2   :     0.016975
      dxy     :     0.016214
  2 C s       :     2.868048  s :     2.868048
      pz      :     1.006598  p :     3.007411
      px      :     0.976339
      py      :     1.024474
      dz2     :     0.015436  d :     0.088124
      dxz     :     0.013952
      dyz     :     0.020381
      dx2y2   :     0.020344
      dxy     :     0.018010
  3 C s       :     2.878880  s :     2.878880
      pz      :     0.935529  p :     2.948704
      px      :     0.983655
      py      :     1.029520
      dz2     :     0.019565  d :     0.121806
      dxz     :     0.018850
      dyz     :     0.033732
      dx2y2   :     0.022386
      dxy     :     0.027273
  4 C s       :     2.865248  s :     2.865248
      pz      :     1.003479  p :     3.022598
      px      :     0.970623
      py      :     1.048497
      dz2     :     0.016406  d :     0.088730
      dxz     :     0.018279
      dyz     :     0.020670
      dx2y2   :     0.017931
      dxy     :     0.015443
  5 C s       :     2.869738  s :     2.869738
      pz      :     1.000753  p :     3.009549
      px      :     0.982176
      py      :     1.026619
      dz2     :     0.014614  d :     0.086507
      dxz     :     0.013392
      dyz     :     0.022300
      dx2y2   :     0.018762
      dxy     :     0.017439
  6 C s       :     2.939715  s :     2.939715
      pz      :     1.012548  p :     3.074840
      px      :     1.022046
      py      :     1.040247
      dz2     :     0.012564  d :     0.056871
      dxz     :     0.008577
      dyz     :     0.014711
      dx2y2   :     0.013545
      dxy     :     0.007474
  7 H s       :     0.845214  s :     0.845214
      pz      :     0.027334  p :     0.045720
      px      :     0.008534
      py      :     0.009852
  8 H s       :     0.877175  s :     0.877175
      pz      :     0.006757  p :     0.051862
      px      :     0.008751
      py      :     0.036353
  9 H s       :     0.856879  s :     0.856879
      pz      :     0.005338  p :     0.042759
      px      :     0.032251
      py      :     0.005171
 10 H s       :     0.876552  s :     0.876552
      pz      :     0.011569  p :     0.068830
      px      :     0.014966
      py      :     0.042295
 11 H s       :     0.866619  s :     0.866619
      pz      :     0.025089  p :     0.071129
      px      :     0.030653
      py      :     0.015387
 12 H s       :     0.866551  s :     0.866551
      pz      :     0.012425  p :     0.070971
      px      :     0.014715
      py      :     0.043830
 13 H s       :     0.876543  s :     0.876543
      pz      :     0.023880  p :     0.068676
      px      :     0.029027
      py      :     0.015770
 14 N s       :     3.044805  s :     3.044805
      pz      :     1.152870  p :     3.431100
      px      :     1.136547
      py      :     1.141683
      dz2     :     0.034272  d :     0.248590
      dxz     :     0.060758
      dyz     :     0.024495
      dx2y2   :     0.061442
      dxy     :     0.067624
 15 O s       :     3.624041  s :     3.624041
      pz      :     1.514482  p :     4.456782
      px      :     1.554299
      py      :     1.388001
      dz2     :     0.005258  d :     0.044323
      dxz     :     0.009490
      dyz     :     0.009572
      dx2y2   :     0.006387
      dxy     :     0.013616
 16 O s       :     3.625617  s :     3.625617
      pz      :     1.576946  p :     4.459337
      px      :     1.282489
      py      :     1.599901
      dz2     :     0.006271  d :     0.043928
      dxz     :     0.009789
      dyz     :     0.000615
      dx2y2   :     0.018604
      dxy     :     0.008650
 17 H s       :     0.689307  s :     0.689307
      pz      :     0.000000  p :     0.000000
      px      :     0.000000
      py      :     0.000000


                      *****************************
                      * MAYER POPULATION ANALYSIS *
                      *****************************

  NA   - Mulliken gross atomic population
  ZA   - Total nuclear charge
  QA   - Mulliken gross atomic charge
  VA   - Mayer's total valence
  BVA  - Mayer's bonded valence
  FA   - Mayer's free valence

  ATOM       NA         ZA         QA         VA         BVA        FA
  0 C      5.9785     6.0000     0.0215     3.8475     3.8475     0.0000
  1 C      5.9789     6.0000     0.0211     3.8517     3.8517    -0.0000
  2 C      5.9345     6.0000     0.0655     3.8529     3.8529     0.0000
  3 C      5.8642     6.0000     0.1358     3.8167     3.8167     0.0000
  4 C      5.9398     6.0000     0.0602     3.8573     3.8573     0.0000
  5 C      5.9737     6.0000     0.0263     3.8386     3.8386     0.0000
  6 C      6.1010     6.0000    -0.1010     3.8679     3.8679     0.0000
  7 H      0.8612     1.0000     0.1388     0.9665     0.9665    -0.0000
  8 H      0.8966     1.0000     0.1034     0.9807     0.9807    -0.0000
  9 H      0.8749     1.0000     0.1251     0.9703     0.9703     0.0000
 10 H      0.9616     1.0000     0.0384     0.9931     0.9931    -0.0000
 11 H      0.9493     1.0000     0.0507     1.0042     1.0042    -0.0000
 12 H      0.9491     1.0000     0.0509     1.0038     1.0038     0.0000
 13 H      0.9598     1.0000     0.0402     0.9924     0.9924     0.0000
 14 N      6.7602     7.0000     0.2398     3.9459     3.9459    -0.0000
 15 O      8.1614     8.0000    -0.1614     2.0500     2.0500    -0.0000
 16 O      8.1657     8.0000    -0.1657     2.0516     2.0516     0.0000
 17 H      0.6893     1.0000     0.3107     0.9035     0.9035     0.0000

  Mayer bond orders larger than 0.100000
B(  0-C ,  1-C ) :   1.2653 B(  0-C ,  5-C ) :   1.2143 B(  0-C ,  6-C ) :   1.0968 
B(  0-C , 17-H ) :   0.1876 B(  1-C ,  2-C ) :   1.4259 B(  1-C , 10-H ) :   0.9837 
B(  2-C ,  3-C ) :   1.2775 B(  2-C , 11-H ) :   0.9862 B(  3-C ,  4-C ) :   1.2933 
B(  3-C , 14-N ) :   0.8631 B(  3-C , 17-H ) :   0.2047 B(  4-C ,  5-C ) :   1.4400 
B(  4-C , 12-H ) :   0.9871 B(  5-C , 13-H ) :   0.9860 B(  6-C ,  7-H ) :   0.8924 
B(  6-C ,  8-H ) :   0.9489 B(  6-C ,  9-H ) :   0.9097 B( 14-N , 15-O ) :   1.5348 
B( 14-N , 16-O ) :   1.5245 B( 15-O , 16-O ) :   0.2931 B( 16-O , 17-H ) :   0.1008 


-------
TIMINGS
-------

Total SCF time: 0 days 0 hours 11 min 27 sec 

Total time                  ....     687.879 sec
Sum of individual times     ....     681.020 sec  ( 99.0%)

Fock matrix formation       ....     667.573 sec  ( 97.0%)
  Split-RI-J                ....      81.214 sec  ( 12.2% of F)
  Chain of spheres X        ....     494.931 sec  ( 74.1% of F)
  XC integration            ....      91.103 sec  ( 13.6% of F)
    Basis function eval.    ....      29.978 sec  ( 32.9% of XC)
    Density eval.           ....      26.653 sec  ( 29.3% of XC)
    XC-Functional eval.     ....       5.139 sec  (  5.6% of XC)
    XC-Potential eval.      ....      22.730 sec  ( 24.9% of XC)
Diagonalization             ....       0.174 sec  (  0.0%)
Density matrix formation    ....       0.051 sec  (  0.0%)
Population analysis         ....       0.066 sec  (  0.0%)
Initial guess               ....       1.861 sec  (  0.3%)
Orbital Transformation      ....       0.306 sec  (  0.0%)
Orbital Orthonormalization  ....       0.000 sec  (  0.0%)
DIIS solution               ....       0.527 sec  (  0.1%)
SOSCF solution              ....       0.166 sec  (  0.0%)
Grid generation             ....      10.294 sec  (  1.5%)

Maximum memory used throughout the entire SCF-calculation: 75.2 MB


-------------------------------------------------------------------------------
                          DFT DISPERSION CORRECTION                            
                                                                               
                                 DFTD4 V2.5                                    
-------------------------------------------------------------------------------
The B3LYP functional is recognized
Active option DFTDOPT                   ...         5   

Starting D4
-------------------------   ----------------
Dispersion correction           -0.026547583
-------------------------   ----------------


-------------------------   --------------------
FINAL SINGLE POINT ENERGY      -475.568056979102
-------------------------   --------------------

------------------------------------------------------------------------------
                         ORCA SCF GRADIENT CALCULATION
------------------------------------------------------------------------------

 ... reading COSX grid (gridx3)
Gradient of the Kohn-Sham DFT energy:
Kohn-Sham wavefunction type      ... RKS
Hartree-Fock exchange scaling    ...    0.200
Number of operators              ...    1
Number of atoms                  ...   18
Basis set dimensions             ...  180
Integral neglect threshold       ... 2.5e-11
Integral primitive cutoff        ... 2.5e-12
SHARK Integral package           ... ON

Nuc. rep. gradient       (SHARK) ... done (  0.0 sec)
HCore & Overlap gradient (SHARK) ... done (  0.9 sec)
RI-J gradient            (SHARK) ... done (  3.8 sec)
COSX-gradient                    ... done ( 33.1 sec)
Exchange-correlation gradient    ... done
Dispersion correction            ... Starting D4


------------------- 
Dispersion Gradient 
------------------- 
   1  :    0.000163215    0.000242568    0.000312656
   2  :   -0.000174831    0.000498714    0.000040634
   3  :   -0.000320949    0.000361143   -0.000176684
   4  :   -0.000135964   -0.000196102   -0.000259306
   5  :    0.000280922   -0.000425440    0.000089226
   6  :    0.000356360   -0.000211741    0.000304013
   7  :    0.000828612    0.000281435    0.001025138
   8  :    0.000252307    0.000361453   -0.000488684
   9  :    0.000155779   -0.000273894    0.000135134
  10  :   -0.000812901    0.000202407    0.000124843
  11  :   -0.000091970    0.000188762   -0.000009255
[...]
      9      -0.003726  -0.106083   0.072344   0.070158   0.088910  -0.000244
     10      -0.013637   0.156417   0.075730  -0.117130   0.078281  -0.000200
     11      -0.005939  -0.049893   0.072785   0.039605   0.086756  -0.000247
     12       0.007857  -0.062657  -0.117353  -0.032353  -0.215245   0.000099
     13      -0.009520  -0.169322   0.016106   0.069824  -0.107553  -0.000290
     14       0.004177  -0.081050  -0.090757  -0.006551  -0.194318   0.000105
     15       0.006959   0.118735   0.010090  -0.002336   0.153290   0.000223
     16       0.018709   0.184417  -0.106447  -0.078895   0.234828   0.000598
     17       0.005244   0.130198  -0.012178  -0.015867   0.168277   0.000065
     18      -0.079726   0.010028  -0.048183   0.002314   0.026843   0.012084
     19      -0.054353  -0.015343  -0.038921  -0.004521   0.023084  -0.015523
     20      -0.024179   0.004920  -0.030264   0.001793   0.020644  -0.062675
     21      -0.005578   0.049968  -0.015762   0.009437   0.001533  -0.403618
     22      -0.069139  -0.090124  -0.037172  -0.017797  -0.002139   0.057283
     23       0.002411   0.028588  -0.011842   0.005979   0.005074   0.839974
     24       0.665683  -0.007836   0.163323  -0.012191  -0.047017   0.031220
     25      -0.085433  -0.051999  -0.052749  -0.017178   0.022001   0.229216
     26       0.092116  -0.102867  -0.010961  -0.037444  -0.004539  -0.099861
     27       0.253608   0.033292   0.045561   0.012321  -0.007103   0.223276
     28       0.641676   0.069844   0.155600   0.026669  -0.047038  -0.101529
     29      -0.056466   0.114256  -0.047786   0.035021   0.025501   0.016502
     30      -0.102686   0.383274   0.352272  -0.097221  -0.300651   0.000079
     31      -0.021787  -0.070572   0.078130  -0.029155   0.094317  -0.002686
     32      -0.086590   0.300876   0.303715  -0.103081  -0.230396  -0.000783
     33      -0.043097   0.100872   0.134990  -0.088448  -0.018659  -0.001015
     34      -0.074362  -0.281664   0.377954  -0.036065   0.326440   0.000393
     35      -0.041128   0.007057   0.185868  -0.087770   0.055863  -0.000745
     36      -0.051598   0.175030   0.350952   0.061034   0.261014  -0.000382
     37      -0.015817  -0.187351   0.050124   0.098976  -0.101169  -0.001034
     38      -0.034535   0.083352   0.289590   0.058947   0.181086   0.000279
     39      -0.029895  -0.073735   0.157311   0.062465  -0.005668  -0.001904
     40      -0.095639  -0.522824   0.366147   0.112558  -0.379125   0.000638
     41      -0.039749  -0.145094   0.193267   0.052221  -0.075933  -0.001846
     42      -0.003037  -0.046269   0.005880  -0.587093  -0.004079   0.000368
     43      -0.007544   0.015175   0.006692   0.477875  -0.007600   0.000340
     44      -0.007590   0.030408   0.007759   0.142814  -0.007260   0.000340
     45      -0.002878   0.012727   0.007085   0.149996   0.006673  -0.000126
     46       0.008638  -0.031488  -0.017851  -0.293702  -0.002874  -0.000050
     47       0.006204  -0.025475  -0.012197  -0.170736   0.000314  -0.000114
     48       0.005789   0.045085  -0.020003   0.357445  -0.006621  -0.000070
     49      -0.000809  -0.004686   0.003532  -0.103309   0.006391  -0.000146
     50       0.001008   0.003924  -0.002659   0.032389   0.002548  -0.000080
     51       0.000029  -0.000013  -0.000048  -0.000222   0.000128  -0.000012
     52       0.000015   0.000008  -0.000043   0.000150   0.000129  -0.000011
     53       0.000025   0.000008  -0.000061   0.000048   0.000159  -0.000014
                 48         49         50         51         52         53    
      0       0.000626  -0.000050   0.002158   0.000215   0.000186  -0.000879
      1       0.000910   0.000439  -0.001351  -0.002723  -0.001219  -0.000169
      2       0.001641   0.000078   0.001406  -0.000285   0.000071  -0.000775
      3       0.000135  -0.000148  -0.011406   0.000998   0.000599  -0.000105
      4       0.000839  -0.001204   0.084413  -0.004730   0.005083  -0.021314
      5       0.000274   0.000407   0.005799  -0.000024   0.001435  -0.004086
      6      -0.000008  -0.000033   0.012678  -0.002430  -0.022157   0.061210
      7       0.000059  -0.000076  -0.010562   0.001679   0.011569  -0.032773
      8      -0.000072  -0.000073   0.008221  -0.001610  -0.015797   0.043294
      9       0.000012  -0.000091  -0.000014  -0.000029   0.002591   0.000151
     10      -0.000029   0.000205   0.000018   0.000057  -0.002860   0.002622
     11       0.000028  -0.000019  -0.000032  -0.000012   0.001582   0.000602
     12       0.000069  -0.000014  -0.000099   0.005084  -0.009237  -0.003582
     13       0.000081  -0.000129   0.001113  -0.018856   0.080838   0.028788
     14      -0.000025  -0.000035   0.000163   0.000479   0.007944   0.002665
     15       0.000483   0.001583  -0.004118  -0.062904  -0.016257  -0.007682
     16      -0.000119  -0.000512   0.001913   0.036665   0.005081   0.003157
     17       0.000653   0.000431  -0.002953  -0.044125  -0.012040  -0.005553
     18      -0.061638  -0.052657  -0.000278  -0.001356  -0.000130  -0.000112
     19      -0.034932   0.074835   0.001401   0.000869   0.000302   0.000022
     20       0.035154  -0.024142  -0.000470  -0.000258  -0.000117   0.000118
     21       0.131106  -0.000328  -0.000749   0.000491  -0.000125   0.000765
     22      -0.029825   0.017422   0.000267   0.000864   0.000117   0.000082
     23      -0.293194  -0.031240  -0.000484  -0.000570   0.000090  -0.000437
     24       0.061994  -0.064856  -0.002586   0.000693   0.000155   0.000501
     25       0.687193  -0.592596  -0.014680  -0.002761  -0.001874   0.000782
     26      -0.239545   0.216530   0.003995   0.001906   0.000859   0.000086
     27       0.532431   0.689931   0.004086   0.016696   0.002188   0.001344
     28      -0.254217  -0.318036  -0.003156  -0.006044  -0.000626  -0.000151
     29       0.089399   0.099410   0.000237   0.003336   0.000497   0.000451
     30      -0.000036  -0.000354   0.130540  -0.007026   0.006442  -0.028392
     31      -0.008559   0.012726  -0.956788   0.051099  -0.051345   0.217990
     32      -0.000571   0.001385  -0.064018   0.003191  -0.004177   0.016831
     33      -0.000553   0.001799  -0.168402   0.029056   0.248818  -0.679900
     34       0.000136  -0.000757   0.095933  -0.016340  -0.137591   0.375763
     35      -0.000660   0.000916  -0.116999   0.020255   0.174368  -0.475662
     36       0.000268  -0.000198   0.001440  -0.032703   0.116607   0.041163
     37      -0.001852  -0.000871  -0.011263   0.235643  -0.901591  -0.316893
     38      -0.000564   0.000178  -0.001085   0.019455  -0.081358  -0.028746
     39      -0.006207  -0.013459   0.047405   0.713087   0.157802   0.076590
     40       0.002599   0.005769  -0.027426  -0.415746  -0.089001  -0.043551
     41      -0.003730  -0.009011   0.033176   0.499480   0.110015   0.053317
     42       0.000011  -0.000061   0.000146   0.000055  -0.000581   0.000475
     43      -0.000026   0.000019  -0.000091  -0.000182   0.000822  -0.000206
     44       0.000015   0.000022   0.000064  -0.000040   0.000028   0.000184
     45      -0.000006   0.000019  -0.000012  -0.000088   0.000325   0.000049
     46       0.000011  -0.000016   0.000005   0.000068  -0.000217  -0.000105
     47      -0.000002  -0.000001  -0.000027  -0.000019   0.000103  -0.000061
     48      -0.000018   0.000038  -0.000045   0.000018   0.000009  -0.000211
     49       0.000014  -0.000009   0.000092   0.000019  -0.000204   0.000305
     50       0.000001  -0.000012   0.000008  -0.000003  -0.000042   0.000029
     51      -0.000000  -0.000000   0.000001  -0.000001   0.000002  -0.000002
     52      -0.000000   0.000001  -0.000001  -0.000001  -0.000004   0.000003
     53      -0.000000   0.000001   0.000002  -0.000001   0.000001   0.000001


-----------
IR SPECTRUM
-----------

 Mode   freq       eps      Int      T**2         TX        TY        TZ
       cm**-1   L/(mol*cm) km/mol    a.u.
----------------------------------------------------------------------------
  9:      9.53   0.021323  107.76  0.697976  (-0.464410 -0.449496 -0.529389)
 10:     76.86   0.000401    2.03  0.001627  ( 0.021070  0.014515  0.031189)
 11:     92.69   0.000108    0.55  0.000365  ( 0.009766  0.002587 -0.016223)
 12:    198.77   0.000498    2.51  0.000781  (-0.018354  0.021035 -0.001386)
 13:    241.11   0.000731    3.69  0.000946  (-0.005231 -0.018285  0.024164)
 14:    349.92   0.001743    8.81  0.001555  ( 0.019661  0.017873  0.029135)
 15:    356.12   0.000195    0.98  0.000171  (-0.000222 -0.012315  0.004335)
 16:    392.00   0.000396    2.00  0.000315  (-0.007677 -0.009325 -0.013006)
 17:    430.06   0.000642    3.25  0.000466  ( 0.009795 -0.012338 -0.014758)
 18:    539.06   0.002733   13.81  0.001582  (-0.006866  0.003519  0.039018)
 19:    589.50   0.000052    0.26  0.000028  (-0.004274  0.002689 -0.001429)
 20:    619.94   0.007685   38.84  0.003868  ( 0.035544  0.031991  0.039769)
 21:    683.01   0.001354    6.84  0.000619  (-0.004294 -0.003992 -0.024173)
 22:    751.38   0.005393   27.26  0.002240  ( 0.034176  0.022143 -0.024119)
 23:    790.11   0.001847    9.34  0.000730  (-0.017853 -0.014482 -0.014182)
 24:    822.00   0.001142    5.77  0.000433  (-0.011768 -0.009447 -0.014344)
 25:    844.10   0.033362  168.60  0.012334  ( 0.060554  0.056195  0.074225)
 26:    854.90   0.007801   39.42  0.002848  ( 0.046501  0.025047  0.007618)
 27:    983.42   0.017401   87.94  0.005522  (-0.027445 -0.035995 -0.058931)
 28:    989.20   0.015477   78.22  0.004883  ( 0.022430  0.025812  0.060936)
 29:   1005.83   0.000107    0.54  0.000033  (-0.003672 -0.004360 -0.000747)
 30:   1015.91   0.001787    9.03  0.000549  ( 0.012116  0.012248  0.015877)
 31:   1021.84   0.010833   54.75  0.003308  ( 0.019014  0.027716  0.046675)
 32:   1138.45   0.002115   10.69  0.000580  ( 0.008873 -0.022143 -0.003267)
 33:   1143.76   0.033846  171.04  0.009235  ( 0.053258  0.046593  0.065017)
 34:   1202.20   0.036094  182.41  0.009369  ( 0.053158  0.048942  0.064407)
 35:   1253.24   0.069061  349.01  0.017197  (-0.070956 -0.066528 -0.087953)
 36:   1291.60   0.000396    2.00  0.000096  (-0.007528  0.000803 -0.006196)
 37:   1351.14   0.067809  342.68  0.015661  ( 0.056060  0.066313  0.090118)
 38:   1364.40   0.003520   17.79  0.000805  (-0.016861  0.013031 -0.018736)
 39:   1419.55   0.000349    1.76  0.000077  ( 0.006122 -0.006188 -0.000990)
 40:   1422.73   0.002019   10.20  0.000443  (-0.010066 -0.009104 -0.016083)
 41:   1437.21   0.011299   57.10  0.002453  (-0.029715  0.038382 -0.009862)
 42:   1454.78   0.018704   94.52  0.004012  (-0.020359 -0.032159 -0.050632)
 43:   1485.71   0.001568    7.92  0.000329  ( 0.000200 -0.017407  0.005120)
 44:   1492.03   0.046457  234.77  0.009717  ( 0.058281  0.052361  0.059818)
 45:   1602.55   0.026690  134.88  0.005197  (-0.057177  0.039741  0.018678)
 46:   1661.24   0.304797  1540.32  0.057256  (-0.132110 -0.121743 -0.158055)
 47:   2977.42   0.114979  581.06  0.012051  ( 0.057318  0.055879  0.075121)
 48:   3082.64   0.001166    5.89  0.000118  (-0.003853 -0.004747 -0.008983)
 49:   3144.16   0.000564    2.85  0.000056  (-0.004317 -0.003639 -0.004906)
 50:   3204.36   0.000368    1.86  0.000036  ( 0.003582  0.001607  0.004517)
 51:   3205.28   0.000494    2.50  0.000048  (-0.003230 -0.004353 -0.004325)
 52:   3228.05   0.003091   15.62  0.000299  ( 0.008196 -0.014946  0.002878)
 53:   3228.44   0.000796    4.02  0.000077  (-0.006896  0.004151 -0.003485)

* The epsilon (eps) is given for a Dirac delta lineshape.
** The dipole moment derivative (T) already includes vibrational overlap.

The first frequency considered to be a vibration is 9
The total number of vibrations considered is 45


--------------------------
THERMOCHEMISTRY AT 298.15K
--------------------------

Temperature         ... 298.15 K
Pressure            ... 1.00 atm
Total Mass          ... 138.15 AMU

Throughout the following assumptions are being made:
  (1) The electronic state is orbitally nondegenerate
  (2) There are no thermally accessible electronically excited states
  (3) Hindered rotations indicated by low frequency modes are not
      treated as such but are treated as vibrations and this may
      cause some error
  (4) All equations used are the standard statistical mechanics
      equations for an ideal gas
  (5) All vibrations are strictly harmonic

freq.       9.53  E(vib)   ...       0.58 
freq.      76.86  E(vib)   ...       0.49 
freq.      92.69  E(vib)   ...       0.47 
freq.     198.77  E(vib)   ...       0.35 
freq.     241.11  E(vib)   ...       0.31 
freq.     349.92  E(vib)   ...       0.23 
freq.     356.12  E(vib)   ...       0.22 
freq.     392.00  E(vib)   ...       0.20 
freq.     430.06  E(vib)   ...       0.18 
freq.     539.06  E(vib)   ...       0.12 
freq.     589.50  E(vib)   ...       0.10 
freq.     619.94  E(vib)   ...       0.09 
freq.     683.01  E(vib)   ...       0.08 
freq.     751.38  E(vib)   ...       0.06 
freq.     790.11  E(vib)   ...       0.05 
freq.     822.00  E(vib)   ...       0.05 
freq.     844.10  E(vib)   ...       0.04 
freq.     854.90  E(vib)   ...       0.04 
freq.     983.42  E(vib)   ...       0.02 
freq.     989.20  E(vib)   ...       0.02 
freq.    1005.83  E(vib)   ...       0.02 
freq.    1015.91  E(vib)   ...       0.02 
freq.    1021.84  E(vib)   ...       0.02 
freq.    1138.45  E(vib)   ...       0.01 
freq.    1143.76  E(vib)   ...       0.01 
freq.    1202.20  E(vib)   ...       0.01 
freq.    1253.24  E(vib)   ...       0.01 
freq.    1291.60  E(vib)   ...       0.01 
freq.    1351.14  E(vib)   ...       0.01 
freq.    1364.40  E(vib)   ...       0.01 
freq.    1419.55  E(vib)   ...       0.00 
freq.    1422.73  E(vib)   ...       0.00 
freq.    1437.21  E(vib)   ...       0.00 
freq.    1454.78  E(vib)   ...       0.00 
freq.    1485.71  E(vib)   ...       0.00 
freq.    1492.03  E(vib)   ...       0.00 
freq.    1602.55  E(vib)   ...       0.00 
freq.    1661.24  E(vib)   ...       0.00 
freq.    2977.42  E(vib)   ...       0.00 
freq.    3082.64  E(vib)   ...       0.00 
freq.    3144.16  E(vib)   ...       0.00 
freq.    3204.36  E(vib)   ...       0.00 
freq.    3205.28  E(vib)   ...       0.00 
freq.    3228.05  E(vib)   ...       0.00 
freq.    3228.44  E(vib)   ...       0.00 

------------
INNER ENERGY
------------

The inner energy is: U= E(el) + E(ZPE) + E(vib) + E(rot) + E(trans)
    E(el)   - is the total energy from the electronic structure calculation
              = E(kin-el) + E(nuc-el) + E(el-el) + E(nuc-nuc)
    E(ZPE)  - the the zero temperature vibrational energy from the frequency calculation
    E(vib)  - the the finite temperature correction to E(ZPE) due to population
              of excited vibrational states
    E(rot)  - is the rotational thermal energy
    E(trans)- is the translational thermal energy

Summary of contributions to the inner energy U:
Electronic energy                ...   -475.60037044 Eh
Zero point energy                ...      0.12859846 Eh      80.70 kcal/mol
Thermal vibrational correction   ...      0.00616303 Eh       3.87 kcal/mol
Thermal rotational correction    ...      0.00141627 Eh       0.89 kcal/mol
Thermal translational correction ...      0.00141627 Eh       0.89 kcal/mol
-----------------------------------------------------------------------
Total thermal energy                   -475.46277640 Eh


Summary of corrections to the electronic energy:
(perhaps to be used in another calculation)
Total thermal correction                  0.00899558 Eh       5.64 kcal/mol
Non-thermal (ZPE) correction              0.12859846 Eh      80.70 kcal/mol
-----------------------------------------------------------------------
Total correction                          0.13759404 Eh      86.34 kcal/mol


--------
ENTHALPY
--------

The enthalpy is H = U + kB*T
                kB is Boltzmann's constant
Total free energy                 ...   -475.46277640 Eh 
Thermal Enthalpy correction       ...      0.00094421 Eh       0.59 kcal/mol
-----------------------------------------------------------------------
Total Enthalpy                    ...   -475.46183219 Eh


Note: Only C1 symmetry has been detected, increase convergence thresholds 
      if your molecule has a higher symmetry. Symmetry factor of 1.0 is   
      used for the rotational entropy correction. 
 

Note: Rotational entropy computed according to Herzberg 
Infrared and Raman Spectra, Chapter V,1, Van Nostrand Reinhold, 1945 
Point Group:  C1, Symmetry Number:   1  
Rotational constants in cm-1:     0.124016     0.018356     0.016439 

Vibrational entropy computed according to the QRRHO of S. Grimme
Chem.Eur.J. 2012 18 9955


-------
ENTROPY
-------

The entropy contributions are T*S = T*(S(el)+S(vib)+S(rot)+S(trans))
     S(el)   - electronic entropy
     S(vib)  - vibrational entropy
     S(rot)  - rotational entropy
     S(trans)- translational entropy
The entropies will be listed as multiplied by the temperature to get
units of energy

Electronic entropy                ...      0.00000000 Eh      0.00 kcal/mol
Vibrational entropy               ...      0.01114184 Eh      6.99 kcal/mol
Rotational entropy                ...      0.01432294 Eh      8.99 kcal/mol
Translational entropy             ...      0.01932890 Eh     12.13 kcal/mol
-----------------------------------------------------------------------
Final entropy term                ...      0.04479368 Eh     28.11 kcal/mol

In case the symmetry of your molecule has not been determined correctly
or in case you have a reason to use a different symmetry number we print 
out the resulting rotational entropy values for sn=1,12 :
 --------------------------------------------------------
|  sn= 1 | S(rot)=       0.01432294 Eh      8.99 kcal/mol|
|  sn= 2 | S(rot)=       0.01366848 Eh      8.58 kcal/mol|
|  sn= 3 | S(rot)=       0.01328565 Eh      8.34 kcal/mol|
|  sn= 4 | S(rot)=       0.01301402 Eh      8.17 kcal/mol|
|  sn= 5 | S(rot)=       0.01280334 Eh      8.03 kcal/mol|
|  sn= 6 | S(rot)=       0.01263119 Eh      7.93 kcal/mol|
|  sn= 7 | S(rot)=       0.01248564 Eh      7.83 kcal/mol|
|  sn= 8 | S(rot)=       0.01235957 Eh      7.76 kcal/mol|
|  sn= 9 | S(rot)=       0.01224836 Eh      7.69 kcal/mol|
|  sn=10 | S(rot)=       0.01214888 Eh      7.62 kcal/mol|
|  sn=11 | S(rot)=       0.01205889 Eh      7.57 kcal/mol|
|  sn=12 | S(rot)=       0.01197673 Eh      7.52 kcal/mol|
 --------------------------------------------------------


-------------------
GIBBS FREE ENERGY
-------------------

The Gibbs free energy is G = H - T*S

Total enthalpy                    ...   -475.46183219 Eh 
Total entropy correction          ...     -0.04479368 Eh    -28.11 kcal/mol
-----------------------------------------------------------------------
Final Gibbs free energy         ...   -475.50662587 Eh

For completeness - the Gibbs free energy minus the electronic energy
G-E(el)                           ...      0.09374457 Eh     58.83 kcal/mol


Timings for individual modules:

Sum of individual times         ...    93515.297 sec (=1558.588 min)
GTO integral calculation        ...       65.657 sec (=   1.094 min)   0.1 %
SCF iterations                  ...    18226.959 sec (= 303.783 min)  19.5 %
SCF Gradient evaluation         ...    74202.036 sec (=1236.701 min)  79.3 %
Geometry relaxation             ...       20.535 sec (=   0.342 min)   0.0 %
Analytical frequency calculation...     1000.110 sec (=  16.669 min)   1.1 %
                             ****ORCA TERMINATED NORMALLY****
TOTAL RUN TIME: 1 days 1 hours 59 minutes 48 seconds 629 msec
