
                                 *****************
                                 * O   R   C   A *
                                 *****************

                                            #,                                       
                                            ###                                      
                                            ####                                     
                                            #####                                    
                                            ######                                   
                                           ########,                                 
                                     ,,################,,,,,                         
                               ,,#################################,,                 
                          ,,##########################################,,             
                       ,#########################################, ''#####,          
                    ,#############################################,,   '####,        
                  ,##################################################,,,,####,       
                ,###########''''           ''''###############################       
              ,#####''   ,,,,##########,,,,          '''####'''          '####       
            ,##' ,,,,###########################,,,                        '##       
           ' ,,###''''                  '''############,,,                           
         ,,##''                                '''############,,,,        ,,,,,,###''
      ,#''                                            '''#######################'''  
     '                                                          ''''####''''         
             ,#######,   #######,   ,#######,      ##                                
            ,#'     '#,  ##    ##  ,#'     '#,    #''#        ######   ,####,        
            ##       ##  ##   ,#'  ##            #'  '#       #        #'  '#        
            ##       ##  #######   ##           ,######,      #####,   #    #        
            '#,     ,#'  ##    ##  '#,     ,#' ,#      #,         ##   #,  ,#        
             '#######'   ##     ##  '#######'  #'      '#     #####' # '####'        



                  #######################################################
                  #                        -***-                        #
                  #          Department of theory and spectroscopy      #
                  #    Directorship and core code : Frank Neese         #
                  #        Max Planck Institute fuer Kohlenforschung    #
                  #                Kaiser Wilhelm Platz 1               #
                  #                 D-45470 Muelheim/Ruhr               #
                  #                      Germany                        #
                  #                                                     #
                  #                  All rights reserved                #
                  #                        -***-                        #
                  #######################################################



                         Program Version 5.0.4 -  RELEASE  -

 With contributions from (in alphabetic order):
   Daniel Aravena         : Magnetic Suceptibility
   Michael Atanasov       : Ab Initio Ligand Field Theory (pilot matlab implementation)
   Alexander A. Auer      : GIAO ZORA, VPT2 properties, NMR spectrum
   Ute Becker             : Parallelization
   Giovanni Bistoni       : ED, misc. LED, open-shell LED, HFLD
   Martin Brehm           : Molecular dynamics
   Dmytro Bykov           : SCF Hessian
   Vijay G. Chilkuri      : MRCI spin determinant printing, contributions to CSF-ICE
   Dipayan Datta          : RHF DLPNO-CCSD density
   Achintya Kumar Dutta   : EOM-CC, STEOM-CC
   Dmitry Ganyushin       : Spin-Orbit,Spin-Spin,Magnetic field MRCI
   Miquel Garcia          : C-PCM and meta-GGA Hessian, CC/C-PCM, Gaussian charge scheme
   Yang Guo               : DLPNO-NEVPT2, F12-NEVPT2, CIM, IAO-localization
   Andreas Hansen         : Spin unrestricted coupled pair/coupled cluster methods
   Benjamin Helmich-Paris : MC-RPA, TRAH-SCF, COSX integrals
   Lee Huntington         : MR-EOM, pCC
   Robert Izsak           : Overlap fitted RIJCOSX, COSX-SCS-MP3, EOM
   Marcus Kettner         : VPT2
   Christian Kollmar      : KDIIS, OOCD, Brueckner-CCSD(T), CCSD density, CASPT2, CASPT2-K
   Simone Kossmann        : Meta GGA functionals, TD-DFT gradient, OOMP2, MP2 Hessian
   Martin Krupicka        : Initial AUTO-CI
   Lucas Lang             : DCDCAS
   Marvin Lechner         : AUTO-CI (C++ implementation), FIC-MRCC
   Dagmar Lenk            : GEPOL surface, SMD
   Dimitrios Liakos       : Extrapolation schemes; Compound Job, initial MDCI parallelization
   Dimitrios Manganas     : Further ROCIS development; embedding schemes
   Dimitrios Pantazis     : SARC Basis sets
   Anastasios Papadopoulos: AUTO-CI, single reference methods and gradients
   Taras Petrenko         : DFT Hessian,TD-DFT gradient, ASA, ECA, R-Raman, ABS, FL, XAS/XES, NRVS
   Peter Pinski           : DLPNO-MP2, DLPNO-MP2 Gradient
   Christoph Reimann      : Effective Core Potentials
   Marius Retegan         : Local ZFS, SOC
   Christoph Riplinger    : Optimizer, TS searches, QM/MM, DLPNO-CCSD(T), (RO)-DLPNO pert. Triples
   Tobias Risthaus        : Range-separated hybrids, TD-DFT gradient, RPA, STAB
   Michael Roemelt        : Original ROCIS implementation
   Masaaki Saitow         : Open-shell DLPNO-CCSD energy and density
   Barbara Sandhoefer     : DKH picture change effects
   Avijit Sen             : IP-ROCIS
   Kantharuban Sivalingam : CASSCF convergence, NEVPT2, FIC-MRCI
   Bernardo de Souza      : ESD, SOC TD-DFT
   Georgi Stoychev        : AutoAux, RI-MP2 NMR, DLPNO-MP2 response
   Willem Van den Heuvel  : Paramagnetic NMR
   Boris Wezisla          : Elementary symmetry handling
   Frank Wennmohs         : Technical directorship


 We gratefully acknowledge several colleagues who have allowed us to
 interface, adapt or use parts of their codes:
   Stefan Grimme, W. Hujo, H. Kruse, P. Pracht,  : VdW corrections, initial TS optimization,
                  C. Bannwarth, S. Ehlert          DFT functionals, gCP, sTDA/sTD-DF
   Ed Valeev, F. Pavosevic, A. Kumar             : LibInt (2-el integral package), F12 methods
   Garnet Chan, S. Sharma, J. Yang, R. Olivares  : DMRG
   Ulf Ekstrom                                   : XCFun DFT Library
   Mihaly Kallay                                 : mrcc  (arbitrary order and MRCC methods)
   Jiri Pittner, Ondrej Demel                    : Mk-CCSD
   Frank Weinhold                                : gennbo (NPA and NBO analysis)
   Christopher J. Cramer and Donald G. Truhlar   : smd solvation model
   Lars Goerigk                                  : TD-DFT with DH, B97 family of functionals
   V. Asgeirsson, H. Jonsson                     : NEB implementation
   FAccTs GmbH                                   : IRC, NEB, NEB-TS, DLPNO-Multilevel, CI-OPT
                                                   MM, QMMM, 2- and 3-layer-ONIOM, Crystal-QMMM,
                                                   LR-CPCM, SF, NACMEs, symmetry and pop. for TD-DFT,
                                                   nearIR, NL-DFT gradient (VV10), updates on ESD,
                                                   ML-optimized integration grids
   S Lehtola, MJT Oliveira, MAL Marques          : LibXC Library
   Liviu Ungur et al                             : ANISO software


 Your calculation uses the libint2 library for the computation of 2-el integrals
 For citations please refer to: http://libint.valeyev.net

 Your ORCA version has been built with support for libXC version: 5.1.0
 For citations please refer to: https://tddft.org/programs/libxc/

 This ORCA versions uses:
   CBLAS   interface :  Fast vector & matrix operations
   LAPACKE interface :  Fast linear algebra routines
   Shared memory     :  Shared parallel matrices


Your calculation utilizes the atom-pairwise dispersion correction
based on tight binding partial charges (D4)
Cite in your paper:
E.Caldeweyher, C.Bannwarth, S.Grimme, J.Chem.Phys., (2017), 147, 034112.
E.Caldeweyher, S.Ehlert, A.Hansen, H.Neugebauer, S.Grimme, J.Chem.Phys., (2018), in progress.
   

================================================================================

----- Orbital basis set information -----
Your calculation utilizes the basis: def2-SVP
   F. Weigend and R. Ahlrichs, Phys. Chem. Chem. Phys. 7, 3297 (2005).

----- AuxJ basis set information -----
Your calculation utilizes the auxiliary basis: def2/J
   F. Weigend, Phys. Chem. Chem. Phys. 8, 1057 (2006).

================================================================================
                                        WARNINGS
                       Please study these warnings very carefully!
================================================================================


WARNING: Geometry Optimization
  ===> : Switching off AutoStart
         For restart on a previous wavefunction, please use MOREAD

INFO   : the flag for use of the SHARK integral package has been found!

================================================================================
                                       INPUT FILE
================================================================================
NAME = para_p_opt_4.inp
|  1> !B3LYP DEF2-SVP OPT FREQ D4 SOSCF
|  2> 
|  3> %geom
|  4> convergence tight
|  5> maxIter 1000
|  6> end
|  7> 
|  8> * xyz 1 1
|  9>   C   -5.72703427146964      1.01534957462634      0.03696149071032
| 10>   C   -6.84454018575559      1.46176741856509     -0.73233882647494
| 11>   C   -7.45799191329538      0.62651587394025     -1.64478219727150
| 12>   C   -6.95393427418581     -0.68058779692813     -1.79191189609400
| 13>   C   -5.85610498991532     -1.16602043398460     -1.05301132101584
| 14>   C   -5.25154532507924     -0.31569597088331     -0.14753119743350
| 15>   C   -5.05966207504511      1.93670336061047      0.99144457077189
| 16>   H   -4.45622837295099      1.40414183330862      1.73951240451427
| 17>   H   -5.78298456651414      2.60192689237097      1.49052164962716
| 18>   H   -4.37239020061200      2.60654928795642      0.43198061068561
| 19>   H   -7.21516033413545      2.47971594690919     -0.59175198476287
| 20>   H   -8.30742229989201      0.95029836886904     -2.24765866469416
| 21>   H   -5.51480320130702     -2.19131007175420     -1.20226797052613
| 22>   H   -4.39869006929925     -0.66322107686119      0.43955219399612
| 23>   N   -7.59943173896586     -1.57406770968429     -2.74978247183711
| 24>   O   -7.66605665597902     -2.75240132589317     -2.44909886633368
| 25>   O   -8.02320553669617     -1.07439753105240     -3.77617557544999
| 26>   H      -11.37421       -4.70768      -11.31832
| 27> **                         ****END OF INPUT****
================================================================================

                       *****************************
                       * Geometry Optimization Run *
                       *****************************

Geometry optimization settings:
Update method            Update   .... BFGS
Choice of coordinates    CoordSys .... Z-matrix Internals
Initial Hessian          InHess   .... Almoef's Model

Convergence Tolerances:
Energy Change            TolE     ....  1.0000e-06 Eh
Max. Gradient            TolMAXG  ....  1.0000e-04 Eh/bohr
RMS Gradient             TolRMSG  ....  3.0000e-05 Eh/bohr
Max. Displacement        TolMAXD  ....  1.0000e-03 bohr
RMS Displacement         TolRMSD  ....  6.0000e-04 bohr
Strict Convergence                ....  False
------------------------------------------------------------------------------
                        ORCA OPTIMIZATION COORDINATE SETUP
------------------------------------------------------------------------------

The optimization will be done in new redundant internal coordinates
Making redundant internal coordinates   ...  (new redundants) done
Evaluating the initial hessian          ...  (Almloef) done
Evaluating the coordinates              ...  done
Calculating the B-matrix                .... done
Calculating the G-matrix                .... done
Diagonalizing the G-matrix              .... done
Small eigenvalue found = 1.006e-02
Small eigenvalue found = 2.682e-02
The first mode is                       ....   53
The number of degrees of freedom        ....   48

    -----------------------------------------------------------------
                    Redundant Internal Coordinates


    -----------------------------------------------------------------
         Definition                    Initial Value    Approx d2E/dq
    -----------------------------------------------------------------
      1. B(C   1,C   0)                  1.4283         0.542868   
      2. B(C   2,C   1)                  1.3808         0.646349   
      3. B(C   3,C   2)                  1.4086         0.583464   
      4. B(C   4,C   3)                  1.4096         0.581485   
      5. B(C   5,C   4)                  1.3815         0.644703   
      6. B(C   5,C   0)                  1.4254         0.548574   
      7. B(C   6,C   0)                  1.4850         0.440680   
      8. B(H   7,C   6)                  1.0988         0.348646   
      9. B(H   8,C   6)                  1.1022         0.344345   
     10. B(H   9,C   6)                  1.1109         0.333521   
     11. B(H  10,C   1)                  1.0924         0.356936   
     12. B(H  11,C   2)                  1.0908         0.359054   
     13. B(H  12,C   4)                  1.0909         0.358959   
     14. B(H  13,C   5)                  1.0922         0.357260   
     15. B(N  14,C   3)                  1.4603         0.432224   
     16. B(O  15,N  14)                  1.2179         0.943108   
     17. B(O  16,N  14)                  1.2177         0.943936   
     18. B(H  17,O  16)                  9.0174         0.000000   
     19. B(H  17,O  15)                  9.8100         0.000000   
     20. B(H  17,N  14)                  9.8736         0.000000   
     21. A(C   5,C   0,C   6)          120.8393         0.399679   
     22. A(C   1,C   0,C   6)          120.2580         0.398945   
     23. A(C   1,C   0,C   5)          118.8915         0.414696   
     24. A(C   2,C   1,H  10)          119.8679         0.354875   
     25. A(C   0,C   1,C   2)          120.9628         0.427014   
     26. A(C   0,C   1,H  10)          119.1693         0.344580   
     27. A(C   3,C   2,H  11)          119.7599         0.349134   
     28. A(C   1,C   2,H  11)          122.1170         0.355231   
     29. A(C   1,C   2,C   3)          118.1226         0.432576   
     30. A(C   2,C   3,C   4)          122.9230         0.424450   
     31. A(C   4,C   3,N  14)          118.5164         0.399847   
     32. A(C   2,C   3,N  14)          118.5604         0.400086   
     33. A(C   3,C   4,C   5)          118.1938         0.432114   
     34. A(C   5,C   4,H  12)          122.0924         0.355062   
     35. A(C   3,C   4,H  12)          119.7120         0.348919   
     36. A(C   0,C   5,C   4)          120.9058         0.427619   
     37. A(C   4,C   5,H  13)          119.8817         0.354776   
     38. A(C   0,C   5,H  13)          119.2124         0.345239   
     39. A(H   8,C   6,H   9)          105.6718         0.285368   
     40. A(H   7,C   6,H   9)          107.1793         0.285921   
     41. A(C   0,C   6,H   9)          109.1746         0.329081   
     42. A(H   7,C   6,H   8)          110.1609         0.287350   
     43. A(C   0,C   6,H   8)          111.7509         0.330823   
     44. A(C   0,C   6,H   7)          112.5613         0.331503   
     45. A(O  16,N  14,H  17)           42.7507         0.089185   
     46. A(O  15,N  14,H  17)           83.4702         0.089185   
     47. A(C   3,N  14,H  17)          158.8141         0.089157   
     48. A(O  15,N  14,O  16)          125.8789         0.492603   
     49. A(C   3,N  14,O  16)          117.1076         0.430130   
     50. A(C   3,N  14,O  15)          117.0135         0.430062   
     51. A(N  14,O  15,H  17)           89.4447         0.089195   
     52. A(N  14,O  16,H  17)          131.9900         0.089378   
     53. A(O  15,H  17,O  16)           12.3228         0.089000   
     54. A(N  14,H  17,O  16)            5.2593         0.089000   
     55. A(N  14,H  17,O  15)            7.0852         0.089000   
     56. D(H  10,C   1,C   0,C   5)    179.7617         0.020143   
     57. D(H  10,C   1,C   0,C   6)     -1.4457         0.020143   
     58. D(C   2,C   1,C   0,C   5)     -0.1932         0.020143   
     59. D(C   2,C   1,C   0,C   6)    178.5994         0.020143   
     60. D(C   3,C   2,C   1,C   0)      0.2486         0.029065   
     61. D(H  11,C   2,C   1,H  10)      0.5355         0.029065   
     62. D(C   3,C   2,C   1,H  10)   -179.7060         0.029065   
     63. D(H  11,C   2,C   1,C   0)   -179.5099         0.029065   
     64. D(N  14,C   3,C   2,H  11)     -0.5160         0.023402   
     65. D(N  14,C   3,C   2,C   1)    179.7196         0.023402   
     66. D(C   4,C   3,C   2,H  11)    179.6578         0.023402   
     67. D(C   4,C   3,C   2,C   1)     -0.1066         0.023402   
     68. D(C   5,C   4,C   3,N  14)   -179.9205         0.023236   
     69. D(H  12,C   4,C   3,C   2)    179.4265         0.023236   
     70. D(C   5,C   4,C   3,C   2)     -0.0943         0.023236   
     71. D(H  12,C   4,C   3,N  14)     -0.3997         0.023236   
     72. D(H  13,C   5,C   4,H  12)      0.4971         0.028907   
     73. D(C   0,C   5,C   4,H  12)   -179.3567         0.028907   
     74. D(C   0,C   5,C   4,C   3)      0.1521         0.028907   
     75. D(H  13,C   5,C   0,C   6)      1.3451         0.020583   
     76. D(H  13,C   5,C   4,C   3)   -179.9942         0.028907   
     77. D(H  13,C   5,C   0,C   1)   -179.8695         0.020583   
     78. D(C   4,C   5,C   0,C   6)   -178.8002         0.020583   
     79. D(C   4,C   5,C   0,C   1)     -0.0148         0.020583   
     80. D(H   9,C   6,C   0,C   5)     98.7333         0.014329   
     81. D(H   9,C   6,C   0,C   1)    -80.0355         0.014329   
     82. D(H   8,C   6,C   0,C   5)   -144.7373         0.014329   
     83. D(H   8,C   6,C   0,C   1)     36.4939         0.014329   
     84. D(H   7,C   6,C   0,C   5)    -20.1548         0.014329   
     85. D(H   7,C   6,C   0,C   1)    161.0764         0.014329   
     86. D(O  15,N  14,C   3,C   2)   -144.2765         0.015928   
     87. D(H  17,N  14,C   3,C   4)   -128.6286         0.015928   
     88. D(H  17,N  14,C   3,C   2)     51.5375         0.015928   
     89. D(O  16,N  14,C   3,C   4)   -144.4906         0.015928   
     90. D(O  16,N  14,C   3,C   2)     35.6755         0.015928   
     91. D(O  15,N  14,C   3,C   4)     35.5575         0.015928   
     92. D(H  17,O  15,N  14,O  16)      5.7418         0.094392   
     93. D(H  17,O  15,N  14,C   3)   -174.3110         0.094392   
     94. D(H  17,O  16,N  14,O  15)     -8.4200         0.094585   
     95. D(H  17,O  16,N  14,C   3)    171.6329         0.094585   
     96. D(O  15,H  17,O  16,N  14)      3.9576         0.001500   
     97. D(O  16,H  17,O  15,N  14)     -2.9400         0.001500   
     98. D(O  16,H  17,N  14,O  15)    173.1414         0.001500   
     99. D(O  16,H  17,N  14,C   3)    -21.0031         0.001500   
    100. D(O  15,H  17,N  14,O  16)   -173.1414         0.001500   
    101. D(O  15,H  17,N  14,C   3)    165.8555         0.001500   
    -----------------------------------------------------------------

Number of atoms                         .... 18
Number of degrees of freedom            .... 101

         *************************************************************
         *                GEOMETRY OPTIMIZATION CYCLE   1            *
         *************************************************************
---------------------------------
CARTESIAN COORDINATES (ANGSTROEM)
---------------------------------
  C     -5.727034    1.015350    0.036961
  C     -6.844540    1.461767   -0.732339
  C     -7.457992    0.626516   -1.644782
  C     -6.953934   -0.680588   -1.791912
  C     -5.856105   -1.166020   -1.053011
  C     -5.251545   -0.315696   -0.147531
  C     -5.059662    1.936703    0.991445
  H     -4.456228    1.404142    1.739512
  H     -5.782985    2.601927    1.490522
  H     -4.372390    2.606549    0.431981
  H     -7.215160    2.479716   -0.591752
  H     -8.307422    0.950298   -2.247659
  H     -5.514803   -2.191310   -1.202268
  H     -4.398690   -0.663221    0.439552
  N     -7.599432   -1.574068   -2.749782
  O     -7.666057   -2.752401   -2.449099
  O     -8.023206   -1.074398   -3.776176
  H    -11.374210   -4.707680  -11.318320

----------------------------
CARTESIAN COORDINATES (A.U.)
----------------------------
  NO LB      ZA    FRAG     MASS         X           Y           Z
   0 C     6.0000    0    12.011  -10.822526    1.918733    0.069847
   1 C     6.0000    0    12.011  -12.934306    2.762340   -1.383920
   2 C     6.0000    0    12.011  -14.093562    1.183943   -3.108188
   3 C     6.0000    0    12.011  -13.141031   -1.286125   -3.386223
   4 C     6.0000    0    12.011  -11.066435   -2.203459   -1.989903
   5 C     6.0000    0    12.011   -9.923982   -0.596579   -0.278794
   6 C     6.0000    0    12.011   -9.561376    3.659839    1.873559
   7 H     1.0000    0     1.008   -8.421051    2.653444    3.287202
   8 H     1.0000    0     1.008  -10.928257    4.916929    2.816678
   9 H     1.0000    0     1.008   -8.262620    4.925664    0.816325
  10 H     1.0000    0     1.008  -13.634677    4.685984   -1.118249
  11 H     1.0000    0     1.008  -15.698753    1.795804   -4.247459
  12 H     1.0000    0     1.008  -10.421468   -4.140976   -2.271957
  13 H     1.0000    0     1.008   -8.312320   -1.253306    0.830633
  14 N     7.0000    0    14.007  -14.360845   -2.974557   -5.196336
  15 O     8.0000    0    15.999  -14.486748   -5.201285   -4.628126
  16 O     8.0000    0    15.999  -15.161661   -2.030317   -7.135938
  17 H     1.0000    0     1.008  -21.494142   -8.896226  -21.388525

--------------------------------
INTERNAL COORDINATES (ANGSTROEM)
--------------------------------
 C      0   0   0     0.000000000000     0.00000000     0.00000000
 C      1   0   0     1.428261648954     0.00000000     0.00000000
 C      2   1   0     1.380768289660   120.96278960     0.00000000
 C      3   2   1     1.408630987242   118.12264504     0.24857888
 C      4   3   2     1.409555973480   122.92299237   359.89344075
 C      5   4   3     1.381462390041   118.19379167   359.90572632
 C      1   2   3     1.485030773294   120.25803207   178.59943805
 H      7   1   2     1.098799115883   112.56126057   161.07635547
 H      7   1   2     1.102177710041   111.75094369    36.49385191
 H      7   1   2     1.110871783062   109.17455248   279.96450378
 H      2   1   3     1.092402471988   119.16932064   179.95484278
 H      3   2   1     1.090791969474   122.11704341   180.49006071
 H      5   4   3     1.090863556843   119.71203816   179.42652925
 H      6   5   4     1.092155069159   119.88165619   180.00580589
 N      4   3   2     1.460304547487   118.56036854   179.71961834
 O     15   4   3     1.217916097797   117.01347432   215.72351697
 O     15   4   3     1.217677018836   117.10763310    35.67545494
 H     17  15   4     9.017422854287   131.98995624   171.63287494

---------------------------
INTERNAL COORDINATES (A.U.)
---------------------------
 C      0   0   0     0.000000000000     0.00000000     0.00000000
 C      1   0   0     2.699023364106     0.00000000     0.00000000
 C      2   1   0     2.609273921860   120.96278960     0.00000000
 C      3   2   1     2.661926789642   118.12264504     0.24857888
 C      4   3   2     2.663674760309   122.92299237   359.89344075
 C      5   4   3     2.610585581490   118.19379167   359.90572632
 C      1   2   3     2.806301461972   120.25803207   178.59943805
 H      7   1   2     2.076429405214   112.56126057   161.07635547
 H      7   1   2     2.082814022890   111.75094369    36.49385191
 H      7   1   2     2.099243439889   109.17455248   279.96450378
 H      2   1   3     2.064341500076   119.16932064   179.95484278
 H      3   2   1     2.061298091386   122.11704341   180.49006071
 H      5   4   3     2.061433371908   119.71203816   179.42652925
 H      6   5   4     2.063873976484   119.88165619   180.00580589
 N      4   3   2     2.759575666870   118.56036854   179.71961834
 O     15   4   3     2.301527878931   117.01347432   215.72351697
 O     15   4   3     2.301076085169   117.10763310    35.67545494
 H     17  15   4    17.040459628365   131.98995624   171.63287494

---------------------
BASIS SET INFORMATION
---------------------
There are 4 groups of distinct atoms

 Group   1 Type C   : 7s4p1d contracted to 3s2p1d pattern {511/31/1}
 Group   2 Type H   : 4s1p contracted to 2s1p pattern {31/1}
 Group   3 Type N   : 7s4p1d contracted to 3s2p1d pattern {511/31/1}
 Group   4 Type O   : 7s4p1d contracted to 3s2p1d pattern {511/31/1}

Atom   0C    basis set group =>   1
Atom   1C    basis set group =>   1
Atom   2C    basis set group =>   1
Atom   3C    basis set group =>   1
Atom   4C    basis set group =>   1
Atom   5C    basis set group =>   1
Atom   6C    basis set group =>   1
Atom   7H    basis set group =>   2
Atom   8H    basis set group =>   2
Atom   9H    basis set group =>   2
Atom  10H    basis set group =>   2
Atom  11H    basis set group =>   2
Atom  12H    basis set group =>   2
Atom  13H    basis set group =>   2
Atom  14N    basis set group =>   3
Atom  15O    basis set group =>   4
Atom  16O    basis set group =>   4
Atom  17H    basis set group =>   2
---------------------------------
AUXILIARY/J BASIS SET INFORMATION
---------------------------------
There are 4 groups of distinct atoms

 Group   1 Type C   : 12s5p4d2f1g contracted to 6s4p3d1f1g pattern {711111/2111/211/2/1}
 Group   2 Type H   : 5s2p1d contracted to 3s1p1d pattern {311/2/1}
 Group   3 Type N   : 12s5p4d2f1g contracted to 6s4p3d1f1g pattern {711111/2111/211/2/1}
 Group   4 Type O   : 12s5p4d2f1g contracted to 6s4p3d1f1g pattern {711111/2111/211/2/1}

Atom   0C    basis set group =>   1
Atom   1C    basis set group =>   1
Atom   2C    basis set group =>   1
Atom   3C    basis set group =>   1
Atom   4C    basis set group =>   1
Atom   5C    basis set group =>   1
Atom   6C    basis set group =>   1
Atom   7H    basis set group =>   2
Atom   8H    basis set group =>   2
Atom   9H    basis set group =>   2
Atom  10H    basis set group =>   2
Atom  11H    basis set group =>   2
Atom  12H    basis set group =>   2
Atom  13H    basis set group =>   2
Atom  14N    basis set group =>   3
Atom  15O    basis set group =>   4
Atom  16O    basis set group =>   4
Atom  17H    basis set group =>   2
------------------------------------------------------------------------------
                           ORCA GTO INTEGRAL CALCULATION
                           -- RI-GTO INTEGRALS CHOSEN --
------------------------------------------------------------------------------
------------------------------------------------------------------------------
                   ___                                                        
                  /   \      - P O W E R E D   B Y -                         
                 /     \                                                     
                 |  |  |   _    _      __       _____    __    __             
                 |  |  |  | |  | |    /  \     |  _  \  |  |  /  |          
                  \  \/   | |  | |   /    \    | | | |  |  | /  /          
                 / \  \   | |__| |  /  /\  \   | |_| |  |  |/  /          
                |  |  |   |  __  | /  /__\  \  |    /   |      \           
                |  |  |   | |  | | |   __   |  |    \   |  |\   \          
                \     /   | |  | | |  |  |  |  | |\  \  |  | \   \       
                 \___/    |_|  |_| |__|  |__|  |_| \__\ |__|  \__/        
                                                                              
                      - O R C A' S   B I G   F R I E N D -                    
                                      &                                       
                       - I N T E G R A L  F E E D E R -                       
                                                                              
 v1 FN, 2020, v2 2021                                                         
------------------------------------------------------------------------------


Reading SHARK input file para_p_opt_4.SHARKINP.tmp ... ok
----------------------
SHARK INTEGRAL PACKAGE
----------------------

Number of atoms                             ...     18
Number of basis functions                   ...    180
Number of shells                            ...     84
Maximum angular momentum                    ...      2
Integral batch strategy                     ... SHARK/LIBINT Hybrid
RI-J (if used) integral strategy            ... SPLIT-RIJ (Revised 2003 algorithm where possible)
Printlevel                                  ...      1
Contraction scheme used                     ... SEGMENTED contraction
Coulomb Range Separation                    ... NOT USED
Exchange Range Separation                   ... NOT USED
Finite Nucleus Model                        ... NOT USED
Auxiliary Coulomb fitting basis             ... AVAILABLE
   # of basis functions in Aux-J            ...    578
   # of shells in Aux-J                     ...    190
   Maximum angular momentum in Aux-J        ...      4
Auxiliary J/K fitting basis                 ... NOT available
Auxiliary Correlation fitting basis         ... NOT available
Auxiliary 'external' fitting basis          ... NOT available
Integral threshold                          ...     2.500000e-11
Primitive cut-off                           ...     2.500000e-12
Primitive pair pre-selection threshold      ...     2.500000e-12

Calculating pre-screening integrals         ... done (  0.1 sec) Dimension = 84
Organizing shell pair data                  ... done (  0.1 sec)
Shell pair information
Total number of shell pairs                 ...      3570
Shell pairs after pre-screening             ...      3001
Total number of primitive shell pairs       ...     13034
Primitive shell pairs kept                  ...      7923
          la=0 lb=0:    898 shell pairs
          la=1 lb=0:   1085 shell pairs
          la=1 lb=1:    345 shell pairs
          la=2 lb=0:    385 shell pairs
          la=2 lb=1:    240 shell pairs
          la=2 lb=2:     48 shell pairs

Calculating one electron integrals          ... done (  0.0 sec)
Calculating RI/J V-Matrix + Cholesky decomp.... done (  0.0 sec)
Calculating Nuclear repulsion               ... done (  0.0 sec) ENN=    495.165556053622 Eh

SHARK setup successfully completed in   0.4 seconds

Maximum memory used throughout the entire GTOINT-calculation: 24.6 MB
-------------------------------------------------------------------------------
                                 ORCA SCF
-------------------------------------------------------------------------------

------------
SCF SETTINGS
------------
Hamiltonian:
 Density Functional     Method          .... DFT(GTOs)
 Exchange Functional    Exchange        .... B88
   X-Alpha parameter    XAlpha          ....  0.666667
   Becke's b parameter  XBeta           ....  0.004200
 Correlation Functional Correlation     .... LYP
 LDA part of GGA corr.  LDAOpt          .... VWN-5
 Gradients option       PostSCFGGA      .... off
 Hybrid DFT is turned on
   Fraction HF Exchange ScalHFX         ....  0.200000
   Scaling of DF-GGA-X  ScalDFX         ....  0.720000
   Scaling of DF-GGA-C  ScalDFC         ....  0.810000
   Scaling of DF-LDA-C  ScalLDAC        ....  1.000000
   Perturbative correction              ....  0.000000
   Density functional embedding theory  .... OFF
   NL short-range parameter             ....  4.800000
 RI-approximation to the Coulomb term is turned on
   Number of AuxJ basis functions       .... 578
   RIJ-COSX (HFX calculated with COS-X)).... on


General Settings:
 Integral files         IntName         .... para_p_opt_4
 Hartree-Fock type      HFTyp           .... RHF
 Total Charge           Charge          ....    1
 Multiplicity           Mult            ....    1
 Number of Electrons    NEL             ....   72
 Basis Dimension        Dim             ....  180
 Nuclear Repulsion      ENuc            ....    495.1655560536 Eh

Convergence Acceleration:
 DIIS                   CNVDIIS         .... on
   Start iteration      DIISMaxIt       ....    12
   Startup error        DIISStart       ....  0.200000
   # of expansion vecs  DIISMaxEq       ....     5
   Bias factor          DIISBfac        ....   1.050
   Max. coefficient     DIISMaxC        ....  10.000
 Trust-Rad. Augm. Hess. CNVTRAH         .... auto
   Auto Start mean grad. ratio tolernc. ....  1.125000
   Auto Start start iteration           ....    20
   Auto Start num. interpolation iter.  ....    10
   Max. Number of Micro iterations      ....    16
   Max. Number of Macro iterations      .... Maxiter - #DIIS iter
   Number of Davidson start vectors     ....     2
   Converg. threshold I  (grad. norm)   ....   1.000e-05
   Converg. threshold II (energy diff.) ....   1.000e-08
   Grad. Scal. Fac. for Micro threshold ....   0.100
   Minimum threshold for Micro iter.    ....   0.010
   NR start threshold (gradient norm)   ....   0.001
   Initial trust radius                 ....   0.400
   Minimum AH scaling param. (alpha)    ....   1.000
   Maximum AH scaling param. (alpha)    .... 1000.000
   Orbital update algorithm             .... Taylor
   White noise on init. David. guess    .... on
   Maximum white noise                  ....   0.010
   Quad. conv. algorithm                .... NR
 SOSCF                  CNVSOSCF        .... on
   Start iteration      SOSCFMaxIt      ....   150
   Startup grad/error   SOSCFStart      ....  0.003300
 Level Shifting         CNVShift        .... on
   Level shift para.    LevelShift      ....    0.2500
   Turn off err/grad.   ShiftErr        ....    0.0010
 Zerner damping         CNVZerner       .... off
 Static damping         CNVDamp         .... on
   Fraction old density DampFac         ....    0.7000
   Max. Damping (<1)    DampMax         ....    0.9800
   Min. Damping (>=0)   DampMin         ....    0.0000
   Turn off err/grad.   DampErr         ....    0.1000
 Fernandez-Rico         CNVRico         .... off

SCF Procedure:
 Maximum # iterations   MaxIter         ....   125
 SCF integral mode      SCFMode         .... Direct
   Integral package                     .... SHARK and LIBINT hybrid scheme
 Reset frequency        DirectResetFreq ....    20
 Integral Threshold     Thresh          ....  2.500e-11 Eh
 Primitive CutOff       TCut            ....  2.500e-12 Eh

Convergence Tolerance:
 Convergence Check Mode ConvCheckMode   .... Total+1el-Energy
 Convergence forced     ConvForced      .... 0
 Energy Change          TolE            ....  1.000e-08 Eh
 1-El. energy change                    ....  1.000e-05 Eh
 Orbital Gradient       TolG            ....  1.000e-05
 Orbital Rotation angle TolX            ....  1.000e-05
 DIIS Error             TolErr          ....  5.000e-07


Diagonalization of the overlap matrix:
Smallest eigenvalue                        ... 2.956e-04
Time for diagonalization                   ...    0.015 sec
Threshold for overlap eigenvalues          ... 1.000e-08
Number of eigenvalues below threshold      ... 0
Time for construction of square roots      ...    0.014 sec
Total time needed                          ...    0.030 sec

Time for model grid setup =    0.468 sec

------------------------------
INITIAL GUESS: MODEL POTENTIAL
------------------------------
Loading Hartree-Fock densities                     ... done
Calculating cut-offs                               ... done
Initializing the effective Hamiltonian             ... done
Setting up the integral package (SHARK)            ... done
Starting the Coulomb interaction                   ... done (   0.4 sec)
Reading the grid                                   ... done
Mapping shells                                     ... done
Starting the XC term evaluation                    ... done (   0.4 sec)
  promolecular density results
     # of electrons  =     72.988592688
     EX              =    -61.270946793
     EC              =     -2.479589625
     EX+EC           =    -63.750536418
Transforming the Hamiltonian                       ... done (   0.0 sec)
Diagonalizing the Hamiltonian                      ... done (   0.0 sec)
Back transforming the eigenvectors                 ... done (   0.0 sec)
Now organizing SCF variables                       ... done
                      ------------------
                      INITIAL GUESS DONE (   1.3 sec)
                      ------------------
-------------------
DFT GRID GENERATION
-------------------

General Integration Accuracy     IntAcc      ... 4.388
Radial Grid Type                 RadialGrid  ... OptM3 with GC (2021)
Angular Grid (max. ang.)         AngularGrid ... 4 (Lebedev-302)
Angular grid pruning method      GridPruning ... 4 (adaptive)
Weight generation scheme         WeightScheme... Becke
Basis function cutoff            BFCut       ... 1.0000e-11
Integration weight cutoff        WCut        ... 1.0000e-14
Angular grids for H and He will be reduced by one unit
Partially contracted basis set               ... off
Rotationally invariant grid construction     ... off

Total number of grid points                  ...    86258
Total number of batches                      ...     1359
Average number of points per batch           ...       63
Average number of grid points per atom       ...     4792
Time for grid setup =    2.140 sec

--------------------
COSX GRID GENERATION
--------------------

GRIDX 1
-------
General Integration Accuracy     IntAcc      ... 3.816
Radial Grid Type                 RadialGrid  ... OptM3 with GC (2021)
Angular Grid (max. ang.)         AngularGrid ... 1 (Lebedev-50)
Angular grid pruning method      GridPruning ... 4 (adaptive)
Weight generation scheme         WeightScheme... Becke
Basis function cutoff            BFCut       ... 1.0000e-11
Integration weight cutoff        WCut        ... 1.0000e-14
Angular grids for H and He will be reduced by one unit
Partially contracted basis set               ... on
Rotationally invariant grid construction     ... off

Total number of grid points                  ...    10992
Total number of batches                      ...      181
Average number of points per batch           ...       60
Average number of grid points per atom       ...      611
UseSFitting                                  ... on

GRIDX 2
-------
General Integration Accuracy     IntAcc      ... 4.020
Radial Grid Type                 RadialGrid  ... OptM3 with GC (2021)
Angular Grid (max. ang.)         AngularGrid ... 2 (Lebedev-110)
Angular grid pruning method      GridPruning ... 4 (adaptive)
Weight generation scheme         WeightScheme... Becke
Basis function cutoff            BFCut       ... 1.0000e-11
Integration weight cutoff        WCut        ... 1.0000e-14
Angular grids for H and He will be reduced by one unit
Partially contracted basis set               ... on
Rotationally invariant grid construction     ... off

Total number of grid points                  ...    24218
Total number of batches                      ...      386
Average number of points per batch           ...       62
Average number of grid points per atom       ...     1345
UseSFitting                                  ... on

GRIDX 3
-------
General Integration Accuracy     IntAcc      ... 4.338
Radial Grid Type                 RadialGrid  ... OptM3 with GC (2021)
Angular Grid (max. ang.)         AngularGrid ... 3 (Lebedev-194)
Angular grid pruning method      GridPruning ... 4 (adaptive)
Weight generation scheme         WeightScheme... Becke
Basis function cutoff            BFCut       ... 1.0000e-11
Integration weight cutoff        WCut        ... 1.0000e-14
Angular grids for H and He will be reduced by one unit
Partially contracted basis set               ... on
Rotationally invariant grid construction     ... off

Total number of grid points                  ...    53327
Total number of batches                      ...      843
Average number of points per batch           ...       63
Average number of grid points per atom       ...     2963
UseSFitting                                  ... on

Time for X-Grid setup             =    2.228 sec

--------------
SCF ITERATIONS
--------------
ITER       Energy         Delta-E        Max-DP      RMS-DP      [F,P]     Damp
               ***  Starting incremental Fock matrix formation  ***
  0   -475.1886193659   0.000000000000 0.20729114  0.00359391  0.2298547 0.7000
  1   -475.4440084336  -0.255389067728 0.15062194  0.00225971  0.0696178 0.7000
                               ***Turning on DIIS***
  2   -475.4463159044  -0.002307470807 0.37990108  0.00475196  0.0360700 0.0000
  3   -475.0609628289   0.385353075491 0.18937329  0.00236881  0.2005511 0.7000
  4   -475.4191272899  -0.358164461016 0.44187100  0.00551473  0.0587238 0.0000
  5   -475.4259335953  -0.006806305397 0.01214382  0.00045031  0.0491663 0.0000
  6   -475.4357344949  -0.009800899556 0.00558164  0.00022052  0.0425346 0.0000
  7   -475.4393494561  -0.003614961177 0.01274578  0.00063507  0.0389457 0.0000
  8   -475.4475057582  -0.008156302170 0.00788954  0.00036358  0.0244530 0.0000
  9   -475.4506510082  -0.003145249939 0.02144694  0.00076413  0.0232974 0.0000
 10   -475.4541298168  -0.003478808686 0.01120944  0.00031976  0.0102438 0.0000
 11   -475.4545566925  -0.000426875631 0.00439383  0.00010889  0.0077247 0.0000
                      *** Initiating the SOSCF procedure ***
                           *** Shutting down DIIS ***
                      *** Re-Reading the Fockian *** 
                      *** Removing any level shift *** 
ITER      Energy       Delta-E        Grad      Rot      Max-DP    RMS-DP
 12   -475.45465545  -0.0000987622  0.000309  0.000309  0.001460  0.000035
               *** Restarting incremental Fock matrix formation ***
 13   -475.45464737   0.0000080829  0.000228  0.001042  0.000944  0.000032
 14   -475.45464644   0.0000009367  0.000372  0.000547  0.000549  0.000013
 15   -475.45464838  -0.0000019401  0.000137  0.000380  0.000407  0.000012
 16   -475.45464788   0.0000004913  0.000221  0.000244  0.000262  0.000007
 17   -475.45464852  -0.0000006402  0.000018  0.000057  0.000134  0.000003
 18   -475.45464850   0.0000000224  0.000033  0.000036  0.000085  0.000002
 19   -475.45464854  -0.0000000351  0.000005  0.000009  0.000019  0.000000
 20   -475.45464854   0.0000000011  0.000008  0.000006  0.000012  0.000000
                  ***Gradient check signals convergence***
              ***Rediagonalizing the Fockian in SOSCF/NRSCF***

               *****************************************************
               *                     SUCCESS                       *
               *           SCF CONVERGED AFTER  21 CYCLES          *
               *****************************************************

Old exchange energy                            =    -12.323415588 Eh
New exchange energy                            =    -12.323488338 Eh
Exchange energy change after final integration =     -0.000072750 Eh
Total energy after final integration           =   -475.454721294 Eh
Final COS-X integration done in                =    16.745 sec

----------------
TOTAL SCF ENERGY
----------------

Total Energy       :         -475.45472129 Eh          -12937.78071 eV

Components:
Nuclear Repulsion  :          495.16555605 Eh           13474.13979 eV
Electronic Energy  :         -970.62027735 Eh          -26411.92050 eV
One Electron Energy:        -1623.48541067 Eh          -44177.28395 eV
Two Electron Energy:          652.86513333 Eh           17765.36345 eV
Max COSX asymmetry :            0.00000230 Eh               0.00006 eV

Virial components:
Potential Energy   :         -946.69630682 Eh          -25760.91617 eV
Kinetic Energy     :          471.24158552 Eh           12823.13546 eV
Virial Ratio       :            2.00894050


DFT components:
N(Alpha)           :       35.999997192121 electrons
N(Beta)            :       35.999997192121 electrons
N(Total)           :       71.999994384241 electrons
E(X)               :      -49.049415593958 Eh       
E(C)               :       -2.905477177965 Eh       
E(XC)              :      -51.954892771923 Eh       
DFET-embed. en.    :        0.000000000000 Eh       

---------------
SCF CONVERGENCE
---------------

  Last Energy change         ...   -8.3361e-09  Tolerance :   1.0000e-08
  Last MAX-Density change    ...    1.7764e-15  Tolerance :   1.0000e-07
  Last RMS-Density change    ...    3.9338e-17  Tolerance :   5.0000e-09
  Last Orbital Gradient      ...    3.7551e-07  Tolerance :   1.0000e-05
  Last Orbital Rotation      ...    1.0704e-06  Tolerance :   1.0000e-05

             **** THE GBW FILE WAS UPDATED (para_p_opt_4.gbw) ****
             **** DENSITY para_p_opt_4.scfp WAS UPDATED ****
             **** ENERGY FILE WAS UPDATED (para_p_opt_4.en.tmp) ****
             **** THE GBW FILE WAS UPDATED (para_p_opt_4.gbw) ****
             **** DENSITY para_p_opt_4.scfp WAS UPDATED ****
----------------
ORBITAL ENERGIES
----------------

  NO   OCC          E(Eh)            E(eV) 
   0   2.0000     -19.207292      -522.6570 
   1   2.0000     -19.206891      -522.6461 
   2   2.0000     -14.602904      -397.3652 
   3   2.0000     -10.290696      -280.0241 
   4   2.0000     -10.266921      -279.3771 
   5   2.0000     -10.262545      -279.2580 
   6   2.0000     -10.262120      -279.2465 
   7   2.0000     -10.254283      -279.0332 
   8   2.0000     -10.253864      -279.0218 
   9   2.0000     -10.242018      -278.6995 
  10   2.0000      -1.270242       -34.5650 
  11   2.0000      -1.096591       -29.8398 
  12   2.0000      -0.924668       -25.1615 
  13   2.0000      -0.854653       -23.2563 
  14   2.0000      -0.810326       -22.0501 
  15   2.0000      -0.781617       -21.2689 
  16   2.0000      -0.694866       -18.9083 
  17   2.0000      -0.672239       -18.2926 
  18   2.0000      -0.628300       -17.0969 
  19   2.0000      -0.598253       -16.2793 
  20   2.0000      -0.586666       -15.9640 
  21   2.0000      -0.556700       -15.1486 
  22   2.0000      -0.531686       -14.4679 
  23   2.0000      -0.523424       -14.2431 
  24   2.0000      -0.500035       -13.6066 
  25   2.0000      -0.493878       -13.4391 
  26   2.0000      -0.475598       -12.9417 
  27   2.0000      -0.445633       -12.1263 
  28   2.0000      -0.429393       -11.6844 
  29   2.0000      -0.422557       -11.4984 
  30   2.0000      -0.406994       -11.0749 
  31   2.0000      -0.359746        -9.7892 
  32   2.0000      -0.353988        -9.6325 
  33   2.0000      -0.345978        -9.4146 
  34   2.0000      -0.325266        -8.8509 
  35   2.0000      -0.304055        -8.2737 
  36   0.0000      -0.494517       -13.4565 
  37   0.0000      -0.127199        -3.4613 
  38   0.0000      -0.072996        -1.9863 
  39   0.0000      -0.057693        -1.5699 
  40   0.0000       0.011569         0.3148 
  41   0.0000       0.033302         0.9062 
  42   0.0000       0.040880         1.1124 
  43   0.0000       0.061037         1.6609 
  44   0.0000       0.082847         2.2544 
  45   0.0000       0.088882         2.4186 
  46   0.0000       0.106208         2.8901 
  47   0.0000       0.113684         3.0935 
  48   0.0000       0.135023         3.6742 
  49   0.0000       0.166868         4.5407 
  50   0.0000       0.186457         5.0738 
  51   0.0000       0.213340         5.8053 
  52   0.0000       0.226682         6.1683 
  53   0.0000       0.234949         6.3933 
  54   0.0000       0.243883         6.6364 
  55   0.0000       0.257496         7.0068 
  56   0.0000       0.292583         7.9616 
  57   0.0000       0.325918         8.8687 
  58   0.0000       0.347142         9.4462 
  59   0.0000       0.351932         9.5766 
  60   0.0000       0.369605        10.0575 
  61   0.0000       0.387041        10.5319 
  62   0.0000       0.391142        10.6435 
  63   0.0000       0.399090        10.8598 
  64   0.0000       0.415668        11.3109 
  65   0.0000       0.424891        11.5619 
  66   0.0000       0.451292        12.2803 
  67   0.0000       0.473738        12.8911 
  68   0.0000       0.505735        13.7617 
  69   0.0000       0.519325        14.1315 
  70   0.0000       0.533785        14.5250 
  71   0.0000       0.563194        15.3253 
  72   0.0000       0.572053        15.5664 
  73   0.0000       0.575652        15.6643 
  74   0.0000       0.586742        15.9660 
  75   0.0000       0.592003        16.1092 
  76   0.0000       0.605415        16.4742 
  77   0.0000       0.610176        16.6037 
  78   0.0000       0.621963        16.9245 
  79   0.0000       0.626273        17.0417 
  80   0.0000       0.636633        17.3237 
  81   0.0000       0.648752        17.6535 
  82   0.0000       0.665661        18.1135 
  83   0.0000       0.671433        18.2706 
  84   0.0000       0.705941        19.2096 
  85   0.0000       0.725901        19.7528 
  86   0.0000       0.733426        19.9575 
  87   0.0000       0.766379        20.8542 
  88   0.0000       0.771279        20.9876 
  89   0.0000       0.843137        22.9429 
  90   0.0000       0.862475        23.4691 
  91   0.0000       0.867510        23.6061 
  92   0.0000       0.905824        24.6487 
  93   0.0000       0.920350        25.0440 
  94   0.0000       0.930084        25.3089 
  95   0.0000       0.979243        26.6466 
  96   0.0000       0.993670        27.0391 
  97   0.0000       1.051871        28.6229 
  98   0.0000       1.053224        28.6597 
  99   0.0000       1.053226        28.6597 
 100   0.0000       1.053258        28.6606 
 101   0.0000       1.066284        29.0151 
 102   0.0000       1.089135        29.6369 
 103   0.0000       1.097425        29.8624 
 104   0.0000       1.117787        30.4165 
 105   0.0000       1.173147        31.9230 
 106   0.0000       1.182556        32.1790 
 107   0.0000       1.191611        32.4254 
 108   0.0000       1.197986        32.5989 
 109   0.0000       1.218378        33.1537 
 110   0.0000       1.229710        33.4621 
 111   0.0000       1.323623        36.0176 
 112   0.0000       1.336082        36.3566 
 113   0.0000       1.408927        38.3389 
 114   0.0000       1.426104        38.8063 
 115   0.0000       1.472620        40.0720 
 116   0.0000       1.486525        40.4504 
 117   0.0000       1.530762        41.6542 
 118   0.0000       1.613276        43.8995 
 119   0.0000       1.628108        44.3031 
 120   0.0000       1.654744        45.0279 
 121   0.0000       1.669660        45.4338 
 122   0.0000       1.675064        45.5808 
 123   0.0000       1.680430        45.7268 
 124   0.0000       1.687277        45.9131 
 125   0.0000       1.697423        46.1892 
 126   0.0000       1.729584        47.0644 
 127   0.0000       1.733262        47.1645 
 128   0.0000       1.739019        47.3211 
 129   0.0000       1.759748        47.8852 
 130   0.0000       1.777515        48.3686 
 131   0.0000       1.845890        50.2292 
 132   0.0000       1.860959        50.6393 
 133   0.0000       1.866376        50.7867 
 134   0.0000       1.911783        52.0223 
 135   0.0000       1.955197        53.2036 
 136   0.0000       1.962495        53.4022 
 137   0.0000       1.993748        54.2526 
 138   0.0000       2.021413        55.0055 
 139   0.0000       2.029794        55.2335 
 140   0.0000       2.056604        55.9630 
 141   0.0000       2.089076        56.8466 
 142   0.0000       2.091506        56.9128 
 143   0.0000       2.176179        59.2168 
 144   0.0000       2.198163        59.8151 
 145   0.0000       2.221038        60.4375 
 146   0.0000       2.236369        60.8547 
 147   0.0000       2.268920        61.7404 
 148   0.0000       2.292905        62.3931 
 149   0.0000       2.317063        63.0505 
 150   0.0000       2.349651        63.9373 
 151   0.0000       2.386842        64.9493 
 152   0.0000       2.399048        65.2814 
 153   0.0000       2.416977        65.7693 
 154   0.0000       2.487944        67.7004 
 155   0.0000       2.538712        69.0819 
 156   0.0000       2.544900        69.2502 
 157   0.0000       2.570411        69.9444 
 158   0.0000       2.580062        70.2071 
 159   0.0000       2.600179        70.7545 
 160   0.0000       2.603566        70.8466 
 161   0.0000       2.628221        71.5175 
 162   0.0000       2.660437        72.3942 
 163   0.0000       2.671027        72.6823 
 164   0.0000       2.698527        73.4307 
 165   0.0000       2.748427        74.7885 
 166   0.0000       2.781837        75.6976 
 167   0.0000       2.816849        76.6504 
 168   0.0000       2.852228        77.6131 
 169   0.0000       2.876861        78.2834 
 170   0.0000       2.918491        79.4162 
 171   0.0000       3.008233        81.8582 
 172   0.0000       3.046434        82.8977 
 173   0.0000       3.115340        84.7727 
 174   0.0000       3.232472        87.9600 
 175   0.0000       3.254215        88.5517 
 176   0.0000       3.332771        90.6893 
 177   0.0000       3.520488        95.7973 
 178   0.0000       3.689458       100.3952 
 179   0.0000       3.714013       101.0634 

                    ********************************
                    * MULLIKEN POPULATION ANALYSIS *
                    ********************************

-----------------------
MULLIKEN ATOMIC CHARGES
-----------------------
   0 C :   -0.032502
   1 C :   -0.012138
   2 C :    0.031480
   3 C :    0.109934
   4 C :    0.033200
   5 C :   -0.011205
   6 C :    0.071667
   7 H :    0.025621
   8 H :    0.031009
   9 H :    0.044017
  10 H :   -0.011570
  11 H :   -0.001518
  12 H :    0.002384
  13 H :   -0.009717
  14 N :    0.232491
  15 O :   -0.246338
  16 O :   -0.256815
  17 H :    1.000000
Sum of atomic charges:    1.0000000

--------------------------------
MULLIKEN REDUCED ORBITAL CHARGES
--------------------------------
  0 C s       :     3.087542  s :     3.087542
      pz      :     0.958218  p :     2.902481
      px      :     0.968911
      py      :     0.975352
      dz2     :     0.007135  d :     0.042479
      dxz     :     0.006743
      dyz     :     0.008912
      dx2y2   :     0.009671
      dxy     :     0.010018
  1 C s       :     3.217848  s :     3.217848
      pz      :     0.954795  p :     2.760829
      px      :     0.959047
      py      :     0.846987
      dz2     :     0.006456  d :     0.033461
      dxz     :     0.005932
      dyz     :     0.006042
      dx2y2   :     0.007676
      dxy     :     0.007355
  2 C s       :     3.238862  s :     3.238862
      pz      :     0.890358  p :     2.695215
      px      :     0.856349
      py      :     0.948508
      dz2     :     0.005778  d :     0.034443
      dxz     :     0.005466
      dyz     :     0.007074
      dx2y2   :     0.008284
      dxy     :     0.007841
  3 C s       :     3.015116  s :     3.015116
      pz      :     0.944785  p :     2.827317
      px      :     0.988958
      py      :     0.893573
      dz2     :     0.006177  d :     0.047632
      dxz     :     0.007277
      dyz     :     0.012996
      dx2y2   :     0.009287
      dxy     :     0.011895
  4 C s       :     3.240307  s :     3.240307
      pz      :     0.930010  p :     2.692161
      px      :     0.963208
      py      :     0.798943
      dz2     :     0.007159  d :     0.034332
      dxz     :     0.005980
      dyz     :     0.006182
      dx2y2   :     0.008350
      dxy     :     0.006662
  5 C s       :     3.216319  s :     3.216319
      pz      :     0.921239  p :     2.761289
      px      :     0.897472
      py      :     0.942578
      dz2     :     0.005145  d :     0.033597
      dxz     :     0.005174
      dyz     :     0.007620
      dx2y2   :     0.007808
      dxy     :     0.007851
  6 C s       :     2.945707  s :     2.945707
      pz      :     0.979585  p :     2.954416
      px      :     0.992721
      py      :     0.982110
      dz2     :     0.002678  d :     0.028210
      dxz     :     0.007553
      dyz     :     0.008115
      dx2y2   :     0.001520
      dxy     :     0.008343
  7 H s       :     0.951213  s :     0.951213
      pz      :     0.009243  p :     0.023166
      px      :     0.007530
      py      :     0.006393
  8 H s       :     0.945634  s :     0.945634
      pz      :     0.006818  p :     0.023358
      px      :     0.008504
      py      :     0.008036
  9 H s       :     0.932184  s :     0.932184
      pz      :     0.006848  p :     0.023800
      px      :     0.008689
      py      :     0.008263
 10 H s       :     0.988698  s :     0.988698
      pz      :     0.004156  p :     0.022872
      px      :     0.005106
      py      :     0.013609
 11 H s       :     0.978294  s :     0.978294
      pz      :     0.007990  p :     0.023224
      px      :     0.010908
      py      :     0.004326
 12 H s       :     0.974365  s :     0.974365
      pz      :     0.003990  p :     0.023251
      px      :     0.004722
      py      :     0.014539
 13 H s       :     0.986835  s :     0.986835
      pz      :     0.007368  p :     0.022882
      px      :     0.010959
      py      :     0.004555
 14 N s       :     3.308556  s :     3.308556
      pz      :     1.098423  p :     3.341440
      px      :     1.172368
      py      :     1.070649
      dz2     :     0.025155  d :     0.117512
      dxz     :     0.014124
      dyz     :     0.037861
      dx2y2   :     0.016693
      dxy     :     0.023680
 15 O s       :     3.862356  s :     3.862356
      pz      :     1.721886  p :     4.361567
      px      :     1.494178
      py      :     1.145503
      dz2     :     0.002676  d :     0.022416
      dxz     :     0.000461
      dyz     :     0.005764
      dx2y2   :     0.007571
      dxy     :     0.005943
 16 O s       :     3.859350  s :     3.859350
      pz      :     1.234305  p :     4.375175
      px      :     1.436083
      py      :     1.704787
      dz2     :     0.007265  d :     0.022291
      dxz     :     0.005757
      dyz     :     0.005885
      dx2y2   :     0.001367
      dxy     :     0.002016
 17 H s       :     0.000000  s :     0.000000
      pz      :     0.000000  p :     0.000000
      px      :     0.000000
      py      :     0.000000


                     *******************************
                     * LOEWDIN POPULATION ANALYSIS *
                     *******************************

----------------------
LOEWDIN ATOMIC CHARGES
----------------------
   0 C :    0.004274
   1 C :   -0.019218
   2 C :   -0.003609
   3 C :   -0.027563
   4 C :   -0.001270
   5 C :   -0.019972
   6 C :   -0.044752
   7 H :    0.034831
   8 H :    0.038217
   9 H :    0.047409
  10 H :    0.032525
  11 H :    0.039252
  12 H :    0.040845
  13 H :    0.033255
  14 N :    0.272925
  15 O :   -0.208910
  16 O :   -0.218239
  17 H :    1.000000

-------------------------------
LOEWDIN REDUCED ORBITAL CHARGES
-------------------------------
  0 C s       :     2.867208  s :     2.867208
      pz      :     0.976993  p :     3.025244
      px      :     1.002328
      py      :     1.045924
      dz2     :     0.015387  d :     0.103273
      dxz     :     0.016425
      dyz     :     0.021441
      dx2y2   :     0.024594
      dxy     :     0.025426
  1 C s       :     2.863062  s :     2.863062
      pz      :     1.016273  p :     3.068247
      px      :     1.019950
      py      :     1.032025
      dz2     :     0.014812  d :     0.087909
      dxz     :     0.017003
      dyz     :     0.016291
      dx2y2   :     0.020554
      dxy     :     0.019249
  2 C s       :     2.863615  s :     2.863615
      pz      :     1.003955  p :     3.049746
      px      :     1.012164
      py      :     1.033627
      dz2     :     0.013370  d :     0.090248
      dxz     :     0.013851
      dyz     :     0.019339
      dx2y2   :     0.022721
      dxy     :     0.020967
  3 C s       :     2.867843  s :     2.867843
      pz      :     0.984570  p :     3.039628
      px      :     1.040426
      py      :     1.014632
      dz2     :     0.014784  d :     0.120092
      dxz     :     0.018757
      dyz     :     0.031665
      dx2y2   :     0.024244
      dxy     :     0.030641
  4 C s       :     2.864276  s :     2.864276
      pz      :     0.995662  p :     3.047090
      px      :     1.011169
      py      :     1.040258
      dz2     :     0.016534  d :     0.089904
      dxz     :     0.017190
      dyz     :     0.016562
      dx2y2   :     0.021862
      dxy     :     0.017757
  5 C s       :     2.862912  s :     2.862912
      pz      :     1.011600  p :     3.068859
      px      :     1.015342
      py      :     1.041916
      dz2     :     0.011875  d :     0.088201
      dxz     :     0.013326
      dyz     :     0.020645
      dx2y2   :     0.021625
      dxy     :     0.020730
  6 C s       :     2.832030  s :     2.832030
      pz      :     1.043973  p :     3.139647
      px      :     1.053403
      py      :     1.042271
      dz2     :     0.005795  d :     0.073075
      dxz     :     0.020010
      dyz     :     0.021813
      dx2y2   :     0.003372
      dxy     :     0.022085
  7 H s       :     0.900723  s :     0.900723
      pz      :     0.025396  p :     0.064447
      px      :     0.021028
      py      :     0.018023
  8 H s       :     0.897555  s :     0.897555
      pz      :     0.017716  p :     0.064227
      px      :     0.023804
      py      :     0.022708
  9 H s       :     0.889101  s :     0.889101
      pz      :     0.018739  p :     0.063490
      px      :     0.022583
      py      :     0.022169
 10 H s       :     0.900144  s :     0.900144
      pz      :     0.012699  p :     0.067331
      px      :     0.015815
      py      :     0.038817
 11 H s       :     0.891208  s :     0.891208
      pz      :     0.023221  p :     0.069540
      px      :     0.032273
      py      :     0.014045
 12 H s       :     0.889485  s :     0.889485
      pz      :     0.012696  p :     0.069670
      px      :     0.015087
      py      :     0.041886
 13 H s       :     0.899327  s :     0.899327
      pz      :     0.021355  p :     0.067418
      px      :     0.031764
      py      :     0.014300
 14 N s       :     3.046977  s :     3.046977
      pz      :     1.151075  p :     3.432067
      px      :     1.133238
      py      :     1.147754
      dz2     :     0.052149  d :     0.248031
      dxz     :     0.027418
      dyz     :     0.084911
      dx2y2   :     0.038195
      dxy     :     0.045358
 15 O s       :     3.618924  s :     3.618924
      pz      :     1.727809  p :     4.546825
      px      :     1.504497
      py      :     1.314520
      dz2     :     0.005822  d :     0.043160
      dxz     :     0.000687
      dyz     :     0.010175
      dx2y2   :     0.017962
      dxy     :     0.008514
 16 O s       :     3.617864  s :     3.617864
      pz      :     1.365943  p :     4.557388
      px      :     1.463848
      py      :     1.727598
      dz2     :     0.014022  d :     0.042987
      dxz     :     0.011135
      dyz     :     0.012164
      dx2y2   :     0.002152
      dxy     :     0.003514
 17 H s       :     0.000000  s :     0.000000
      pz      :     0.000000  p :     0.000000
      px      :     0.000000
      py      :     0.000000


                      *****************************
                      * MAYER POPULATION ANALYSIS *
                      *****************************

  NA   - Mulliken gross atomic population
  ZA   - Total nuclear charge
  QA   - Mulliken gross atomic charge
  VA   - Mayer's total valence
  BVA  - Mayer's bonded valence
  FA   - Mayer's free valence

  ATOM       NA         ZA         QA         VA         BVA        FA
  0 C      6.0325     6.0000    -0.0325     3.9607     3.9607    -0.0000
  1 C      6.0121     6.0000    -0.0121     3.8422     3.8422     0.0000
  2 C      5.9685     6.0000     0.0315     3.8565     3.8565    -0.0000
  3 C      5.8901     6.0000     0.1099     3.8113     3.8113     0.0000
  4 C      5.9668     6.0000     0.0332     3.8545     3.8545    -0.0000
  5 C      6.0112     6.0000    -0.0112     3.8431     3.8431     0.0000
  6 C      5.9283     6.0000     0.0717     3.9132     3.9132    -0.0000
  7 H      0.9744     1.0000     0.0256     0.9948     0.9948    -0.0000
  8 H      0.9690     1.0000     0.0310     0.9921     0.9921     0.0000
  9 H      0.9560     1.0000     0.0440     0.9878     0.9878    -0.0000
 10 H      1.0116     1.0000    -0.0116     0.9887     0.9887     0.0000
 11 H      1.0015     1.0000    -0.0015     1.0060     1.0060    -0.0000
 12 H      0.9976     1.0000     0.0024     1.0061     1.0061    -0.0000
 13 H      1.0097     1.0000    -0.0097     0.9888     0.9888    -0.0000
 14 N      6.7675     7.0000     0.2325     3.9579     3.9579     0.0000
 15 O      8.2463     8.0000    -0.2463     1.9372     1.9372     0.0000
 16 O      8.2568     8.0000    -0.2568     1.9289     1.9289     0.0000
 17 H      0.0000     1.0000     1.0000     0.0000     0.0000    -0.0000

  Mayer bond orders larger than 0.100000
B(  0-C ,  1-C ) :   1.3589 B(  0-C ,  5-C ) :   1.3685 B(  0-C ,  6-C ) :   1.0804 
B(  1-C ,  2-C ) :   1.3758 B(  1-C , 10-H ) :   0.9841 B(  2-C ,  3-C ) :   1.3675 
B(  2-C , 11-H ) :   0.9863 B(  3-C ,  4-C ) :   1.3724 B(  3-C , 14-N ) :   0.8650 
B(  4-C ,  5-C ) :   1.3675 B(  4-C , 12-H ) :   0.9861 B(  5-C , 13-H ) :   0.9829 
B(  6-C ,  7-H ) :   0.9575 B(  6-C ,  8-H ) :   0.9542 B(  6-C ,  9-H ) :   0.9440 
B( 14-N , 15-O ) :   1.5363 B( 14-N , 16-O ) :   1.5283 B( 15-O , 16-O ) :   0.2763 


-------
TIMINGS
-------

Total SCF time: 0 days 0 hours 3 min 9 sec 

Total time                  ....     189.743 sec
Sum of individual times     ....     188.948 sec  ( 99.6%)

Fock matrix formation       ....     182.632 sec  ( 96.3%)
  Split-RI-J                ....      16.942 sec  (  9.3% of F)
  Chain of spheres X        ....     132.701 sec  ( 72.7% of F)
  XC integration            ....      32.672 sec  ( 17.9% of F)
    Basis function eval.    ....      12.399 sec  ( 37.9% of XC)
    Density eval.           ....       9.167 sec  ( 28.1% of XC)
    XC-Functional eval.     ....       2.809 sec  (  8.6% of XC)
    XC-Potential eval.      ....       6.567 sec  ( 20.1% of XC)
Diagonalization             ....       0.197 sec  (  0.1%)
Density matrix formation    ....       0.038 sec  (  0.0%)
Population analysis         ....       0.039 sec  (  0.0%)
Initial guess               ....       0.820 sec  (  0.4%)
Orbital Transformation      ....       0.000 sec  (  0.0%)
Orbital Orthonormalization  ....       0.000 sec  (  0.0%)
DIIS solution               ....       0.302 sec  (  0.2%)
SOSCF solution              ....       0.084 sec  (  0.0%)
Grid generation             ....       4.836 sec  (  2.5%)

Maximum memory used throughout the entire SCF-calculation: 74.8 MB


-------------------------------------------------------------------------------
                          DFT DISPERSION CORRECTION                            
                                                                               
                                 DFTD4 V2.5                                    
-------------------------------------------------------------------------------
The B3LYP functional is recognized
Active option DFTDOPT                   ...         5   

Starting D4
-------------------------   ----------------
Dispersion correction           -0.026483622
-------------------------   ----------------


-------------------------   --------------------
FINAL SINGLE POINT ENERGY      -475.481204915911
-------------------------   --------------------

------------------------------------------------------------------------------
                         ORCA SCF GRADIENT CALCULATION
------------------------------------------------------------------------------

 ... reading COSX grid (gridx3)
Gradient of the Kohn-Sham DFT energy:
Kohn-Sham wavefunction type      ... RKS
Hartree-Fock exchange scaling    ...    0.200
Number of operators              ...    1
Number of atoms                  ...   18
Basis set dimensions             ...  180
Integral neglect threshold       ... 2.5e-11
Integral primitive cutoff        ... 2.5e-12
SHARK Integral package           ... ON

Nuc. rep. gradient       (SHARK) ... done (  0.0 sec)
HCore & Overlap gradient (SHARK) ... done (  0.3 sec)
RI-J gradient            (SHARK) ... done (  2.0 sec)
COSX-gradient                    ... done ( 18.2 sec)
Exchange-correlation gradient    ... done
Dispersion correction            ... Starting D4


------------------- 
Dispersion Gradient 
------------------- 
   1  :    0.000179403    0.000247482    0.000269405
   2  :   -0.000214588    0.000471873    0.000045722
   3  :   -0.000356511    0.000335960   -0.000161510
   4  :   -0.000155455   -0.000214797   -0.000230278
   5  :    0.000303878   -0.000406656    0.000088881
   6  :    0.000407015   -0.000206925    0.000257927
   7  :    0.000286990    0.000398193    0.000410441
   8  :    0.000076860    0.000071472    0.000118442
   9  :    0.000038490    0.000104813    0.000117264
  10  :    0.000103864    0.000123312    0.000071734
  11  :   -0.000106408    0.000181447   -0.000006193
  12  :   -0.000161173    0.000114733   -0.000089681
  13  :    0.000107998   -0.000187618    0.000010816
  14  :    0.000156619   -0.000109054    0.000089048
  15  :   -0.000259313   -0.000359445   -0.000385905
  16  :   -0.000175543   -0.000447542   -0.000168704
  17  :   -0.000232519   -0.000117654   -0.000438168
  18  :    0.000000393    0.000000404    0.000000757

  |G| =    0.001660025

done

------------------
CARTESIAN GRADIENT
------------------

   1   C   :    0.011576925    0.014690313    0.014001690
   2   C   :   -0.017135339    0.002382434   -0.014852423
   3   C   :   -0.005113802    0.015463229    0.006844339
   4   C   :   -0.004808257   -0.004565604   -0.006020292
   5   C   :    0.016329476   -0.001111773    0.010014238
   6   C   :    0.003031083   -0.021380354   -0.006167428
   7   C   :   -0.007091277   -0.012082164   -0.000099123
   8   H   :    0.001081217   -0.000202717   -0.001357972
   9   H   :   -0.000751183    0.002011097   -0.001961137
  10   H   :    0.000634510    0.001741421   -0.002877455
  11   H   :    0.000242069   -0.000322680   -0.000668520
  12   H   :   -0.000444818    0.000553286    0.000173930
  13   H   :    0.000817389   -0.000187888   -0.000002697
  14   H   :   -0.000529239   -0.000207764   -0.000272766
  15   N   :   -0.004008995   -0.003654807   -0.007233673
  16   O   :   -0.000007481    0.007370567    0.003348077
  17   O   :    0.006428717   -0.000440849    0.007444938
  18   H   :   -0.000165563   -0.000113479   -0.000424328

Difference to translation invariance:
           :    0.0000854310   -0.0000577331   -0.0001106000

Difference to rotation invariance:
           :    0.0000095940   -0.0016144313    0.0002744874

Norm of the cartesian gradient     ...    0.0528848273
RMS gradient                       ...    0.0071967134
MAX gradient                       ...    0.0213803544

-------
TIMINGS
-------

Total SCF gradient time            ...       29.368 sec

One electron gradient       ....       0.325 sec  (  1.1%)
RI-J Coulomb gradient       ....       2.022 sec  (  6.9%)
COSX gradient               ....      18.180 sec  ( 61.9%)
XC gradient                 ....       8.021 sec  ( 27.3%)

Maximum memory used throughout the entire SCFGRAD-calculation: 60.1 MB
------------------------------------------------------------------------------
                         ORCA GEOMETRY RELAXATION STEP
------------------------------------------------------------------------------

Reading the OPT-File                    .... done
Getting information on internals        .... done
Copying old internal coords+grads       .... done
Making the new internal coordinates     .... (new redundants).... done
Validating the new internal coordinates .... (new redundants).... done
Calculating the B-matrix                .... done
Calculating the G,G- and P matrices     .... done
Transforming gradient to internals      .... done
Projecting the internal gradient        .... done
Number of atoms                         ....  18
Number of internal coordinates          .... 101
Current Energy                          ....  -475.481204916 Eh
Current gradient norm                   ....     0.052884827 Eh/bohr
Maximum allowed component of the step   ....  0.300
Current trust radius                    ....  0.300
Evaluating the initial hessian          ....  (Almloef) done
Projecting the Hessian                  .... done
Forming the augmented Hessian           .... done
Diagonalizing the augmented Hessian     .... done
Last element of RFO vector              ....  0.968194341
Lowest eigenvalues of augmented Hessian:
 -0.004137204  0.000024972  0.014328943  0.015017391  0.016907052
Length of the computed step             ....  0.258418526
The final length of the internal step   ....  0.258418526
Converting the step to cartesian space:
 Initial RMS(Int)=    0.0257136044
Transforming coordinates:
 Iter   0:  RMS(Cart)=    0.0488065411 RMS(Int)=    0.6250219506
 Iter   1:  RMS(Cart)=    0.0014394192 RMS(Int)=    0.0010941848
 Iter   2:  RMS(Cart)=    0.0001137231 RMS(Int)=    0.0000771262
 Iter   3:  RMS(Cart)=    0.0000103356 RMS(Int)=    0.0000070520
 Iter   4:  RMS(Cart)=    0.0000008048 RMS(Int)=    0.0000005713
 Iter   5:  RMS(Cart)=    0.0000000787 RMS(Int)=    0.0000000489
done
Storing new coordinates                 .... done

                                .--------------------.
          ----------------------|Geometry convergence|-------------------------
          Item                value                   Tolerance       Converged
          ---------------------------------------------------------------------
          RMS gradient        0.0039628063            0.0000300000      NO
          MAX gradient        0.0170843600            0.0001000000      NO
          RMS step            0.0257136044            0.0006000000      NO
          MAX step            0.1115455569            0.0010000000      NO
          ........................................................
          Max(Bonds)      0.0272      Max(Angles)    0.82
          Max(Dihed)        6.39      Max(Improp)    0.00
          ---------------------------------------------------------------------

The optimization has not yet converged - more geometry cycles are needed


    ---------------------------------------------------------------------------
                         Redundant Internal Coordinates
                            (Angstroem and degrees)

        Definition                    Value    dE/dq     Step     New-Value
    ----------------------------------------------------------------------------
     1. B(C   1,C   0)                1.4283  0.017084 -0.0165    1.4117   
     2. B(C   2,C   1)                1.3808 -0.010524  0.0086    1.3893   
     3. B(C   3,C   2)                1.4086  0.012355 -0.0111    1.3975   
     4. B(C   4,C   3)                1.4096  0.014005 -0.0127    1.3969   
     5. B(C   5,C   4)                1.3815 -0.010926  0.0089    1.3904   
     6. B(C   5,C   0)                1.4254  0.016089 -0.0154    1.4100   
     7. B(C   6,C   0)                1.4850 -0.012078  0.0144    1.4994   
     8. B(H   7,C   6)                1.0988 -0.000236  0.0004    1.0992   
     9. B(H   8,C   6)                1.1022  0.000830 -0.0013    1.1009   
    10. B(H   9,C   6)                1.1109  0.002887 -0.0045    1.1063   
    11. B(H  10,C   1)                1.0924 -0.000463  0.0007    1.0931   
    12. B(H  11,C   2)                1.0908  0.000416 -0.0006    1.0902   
    13. B(H  12,C   4)                1.0909  0.000427 -0.0006    1.0902   
    14. B(H  13,C   5)                1.0922 -0.000495  0.0007    1.0929   
    15. B(N  14,C   3)                1.4603 -0.004998  0.0061    1.4664   
    16. B(O  15,N  14)                1.2179 -0.006351  0.0035    1.2215   
    17. B(O  16,N  14)                1.2177 -0.006994  0.0048    1.2225   
    18. B(H  17,O  16)                9.0174  0.002519 -0.0183    8.9992   
    19. B(H  17,O  15)                9.8100  0.001139 -0.0272    9.7828   
    20. B(H  17,N  14)                9.8736 -0.003174 -0.0146    9.8591   
    21. A(C   5,C   0,C   6)          120.84 -0.001432    0.20    121.04   
    22. A(C   1,C   0,C   6)          120.26 -0.002006    0.28    120.54   
    23. A(C   1,C   0,C   5)          118.89  0.003438   -0.48    118.41   
    24. A(C   2,C   1,H  10)          119.87  0.000649   -0.08    119.79   
    25. A(C   0,C   1,C   2)          120.96 -0.002006    0.28    121.24   
    26. A(C   0,C   1,H  10)          119.17  0.001357   -0.20    118.97   
    27. A(C   3,C   2,H  11)          119.76  0.001926   -0.28    119.48   
    28. A(C   1,C   2,H  11)          122.12  0.000773   -0.09    122.03   
    29. A(C   1,C   2,C   3)          118.12 -0.002700    0.37    118.49   
    30. A(C   2,C   3,C   4)          122.92  0.005932   -0.82    122.11   
    31. A(C   4,C   3,N  14)          118.52 -0.002921    0.40    118.92   
    32. A(C   2,C   3,N  14)          118.56 -0.003011    0.41    118.97   
    33. A(C   3,C   4,C   5)          118.19 -0.002299    0.32    118.51   
[...]
     11      -0.011397   0.039707   0.102680   0.025911  -0.115831  -0.000315
     12       0.017688   0.020723  -0.097640  -0.034978   0.150169   0.000203
     13      -0.016737   0.150480   0.027879   0.068125   0.092873  -0.000247
     14       0.010317   0.132225  -0.104070  -0.005214   0.251707  -0.000016
     15      -0.009965  -0.058860   0.026323   0.015662  -0.073884  -0.000091
     16       0.031780  -0.154195  -0.103457  -0.072390  -0.213436   0.000507
     17       0.014383  -0.180881  -0.038565  -0.031908  -0.240064   0.000396
     18      -0.003950  -0.010907  -0.015567   0.003729  -0.011267  -0.054443
     19      -0.031162   0.015058  -0.028454  -0.003744  -0.019260  -0.036551
     20      -0.094027  -0.003203  -0.060595   0.001117  -0.034309  -0.000591
     21      -0.352296  -0.084122  -0.123390   0.025421  -0.042274   0.052292
     22       0.402176  -0.067294   0.087375   0.027694   0.029469  -0.164551
     23       0.411324  -0.046255   0.080102   0.020640   0.020399   0.186305
     24       0.205022   0.092047   0.034792  -0.030956   0.015260  -0.167176
     25      -0.200514   0.077624  -0.083855  -0.022134  -0.030773   0.159483
     26       0.631979   0.058203   0.141680  -0.024948   0.034359   0.089575
     27      -0.041518  -0.058218  -0.020358   0.012887  -0.009817   0.772366
     28       0.038614   0.087348  -0.000066  -0.015415   0.006955   0.445804
     29      -0.055495  -0.019897  -0.036977   0.008145  -0.002744  -0.272877
     30      -0.069062  -0.362637   0.254803  -0.088240   0.266761   0.000404
     31      -0.003185   0.072466   0.065765  -0.030780  -0.098341  -0.002553
     32      -0.086167  -0.396829   0.359474  -0.106977   0.259350  -0.000934
     33      -0.006002  -0.127439   0.027257  -0.071982   0.074716  -0.000893
     34      -0.040109   0.241486   0.362239  -0.034405  -0.306474   0.000435
     35      -0.043651  -0.019850   0.276363  -0.101558  -0.105932  -0.000899
     36      -0.048897  -0.184385   0.260847   0.020035  -0.225232   0.000596
     37      -0.018342   0.185248   0.040096   0.085166   0.110899  -0.000707
     38      -0.084206  -0.133115   0.356986   0.096030  -0.218160  -0.000704
     39      -0.012051  -0.068331   0.041026   0.008206  -0.076608  -0.002182
     40      -0.100472   0.436544   0.356078   0.094027   0.354005   0.000454
     41      -0.086459   0.233748   0.303144   0.102007   0.149588  -0.001725
     42      -0.004060  -0.020437   0.003491  -0.091165   0.003921   0.000206
     43      -0.001913  -0.042023   0.005086   0.672381   0.005721   0.000286
     44      -0.010061   0.033085   0.009360  -0.365871   0.008742   0.000484
     45       0.001203   0.011020  -0.003280  -0.034436  -0.001564  -0.000093
     46       0.005950   0.043817  -0.020358  -0.372070   0.006114  -0.000041
     47       0.000509   0.001341  -0.000556   0.023047  -0.005292  -0.000143
     48       0.002815  -0.007620  -0.005362   0.093442   0.000244  -0.000023
     49      -0.004301   0.017071   0.009637  -0.201424  -0.007915  -0.000129
     50       0.009542  -0.038019  -0.019028   0.298179   0.002265  -0.000121
     51       0.000016   0.000000  -0.000041  -0.000013  -0.000085  -0.000007
     52       0.000008  -0.000003  -0.000022   0.000161  -0.000081  -0.000009
     53       0.000024   0.000008  -0.000051  -0.000090  -0.000144  -0.000011
                 48         49         50         51         52         53    
      0       0.001197  -0.000395   0.001017  -0.001886   0.000417  -0.000818
      1       0.001173   0.000080  -0.002631   0.001087  -0.001067   0.000071
      2       0.001018  -0.000378  -0.000612  -0.001720  -0.000406  -0.000894
      3       0.000101   0.000924  -0.001076   0.028472   0.000168   0.004872
      4       0.000808  -0.001178   0.003756  -0.077847   0.001187  -0.020907
      5       0.000291  -0.000674   0.001308  -0.019702   0.001043  -0.008478
      6      -0.000097  -0.000056  -0.000891  -0.013351  -0.010326   0.059653
      7      -0.000003  -0.000049   0.000526   0.010725   0.005633  -0.034204
      8      -0.000003  -0.000066  -0.000793  -0.009312  -0.008921   0.050898
      9       0.000016  -0.000120  -0.000026   0.000045   0.002639  -0.000929
     10       0.000024   0.000177   0.000042  -0.000031  -0.002274   0.002855
     11       0.000000  -0.000045   0.000001   0.000002   0.001694   0.000842
     12      -0.000040   0.000053   0.007882   0.001164  -0.026073  -0.004531
     13      -0.000004  -0.000153  -0.016859  -0.002948   0.078755   0.013226
     14       0.000066  -0.000062  -0.001719  -0.000530   0.021637   0.003353
     15       0.000571   0.000424  -0.059655  -0.002449  -0.014831  -0.004164
     16      -0.000095  -0.000703   0.036351   0.001857   0.005641   0.002173
     17       0.000656   0.001056  -0.049091  -0.001728  -0.014823  -0.003744
     18       0.034782  -0.055619  -0.000619   0.001041  -0.000177   0.000182
     19       0.015015   0.075110   0.001086  -0.001209   0.000252   0.000009
     20      -0.069562  -0.014774  -0.000798  -0.000339  -0.000020  -0.000089
     21       0.209828   0.167545   0.004475  -0.000833   0.000592   0.000266
     22      -0.457872  -0.395268  -0.008252   0.003114  -0.000833  -0.000104
     23       0.530700   0.463779   0.012115  -0.001595   0.001725   0.000763
     24      -0.369515   0.486264   0.003639  -0.010184   0.001335  -0.000768
     25       0.418789  -0.529089  -0.003149   0.012768  -0.001283   0.001205
     26       0.201174  -0.271018  -0.000643   0.007669  -0.000210   0.000992
     27      -0.272722   0.010563  -0.000341  -0.000068  -0.000003  -0.000556
     28      -0.157217   0.032604   0.000832  -0.000541   0.000153  -0.000364
     29       0.082310  -0.013126   0.000439   0.000855   0.000045   0.000726
     30       0.002535  -0.004876   0.016307  -0.323326   0.004004  -0.076570
     31      -0.006919   0.014956  -0.045116   0.882093  -0.011849   0.215432
     32      -0.002744   0.005418  -0.011464   0.223275  -0.003311   0.055961
     33      -0.000611   0.001527   0.009546   0.165535   0.117442  -0.662773
     34      -0.000074  -0.001054  -0.005642  -0.100849  -0.069504   0.393491
     35      -0.000282   0.001755   0.008079   0.138597   0.099064  -0.560476
     36       0.000281   0.000360  -0.073241  -0.011665   0.298135   0.048571
     37      -0.001711  -0.000045   0.210853   0.034062  -0.879784  -0.143763
     38      -0.000507  -0.000312   0.052434   0.008616  -0.227993  -0.037089
     39      -0.005257  -0.008783   0.675866   0.025763   0.153085   0.043119
     40       0.003214   0.004629  -0.413787  -0.015882  -0.092347  -0.026286
     41      -0.005783  -0.008691   0.555755   0.021007   0.128376   0.035983
     42       0.000029   0.000029   0.000048  -0.000103  -0.000278   0.000332
     43      -0.000005   0.000075  -0.000194   0.000090   0.000855  -0.000428
     44      -0.000004  -0.000003  -0.000004  -0.000115  -0.000176   0.000417
     45      -0.000005  -0.000003  -0.000050   0.000024   0.000193  -0.000046
     46       0.000006  -0.000024   0.000079   0.000011  -0.000282  -0.000083
     47      -0.000001  -0.000002  -0.000058   0.000006   0.000226  -0.000037
     48      -0.000008  -0.000006  -0.000013   0.000031   0.000021  -0.000112
     49       0.000010  -0.000041   0.000019  -0.000098  -0.000129   0.000370
     50      -0.000005   0.000021   0.000021   0.000013  -0.000080  -0.000075
     51       0.000000  -0.000001  -0.000002  -0.000001   0.000002  -0.000001
     52      -0.000000  -0.000001   0.000000   0.000000  -0.000003   0.000002
     53      -0.000001   0.000000  -0.000000  -0.000001   0.000001  -0.000000


-----------
IR SPECTRUM
-----------

 Mode   freq       eps      Int      T**2         TX        TY        TZ
       cm**-1   L/(mol*cm) km/mol    a.u.
----------------------------------------------------------------------------
  8:      3.85   0.000000    0.00  0.000000  ( 0.000000  0.000000  0.000000)
  9:      8.32   0.021356  107.92  0.801245  (-0.357645 -0.440798 -0.692122)
 10:     76.59   0.000604    3.05  0.002461  (-0.025622 -0.020228 -0.037354)
 11:     92.43   0.000099    0.50  0.000335  ( 0.013458  0.008460 -0.009062)
 12:    198.39   0.000472    2.39  0.000743  ( 0.010348 -0.023384  0.009452)
 13:    241.20   0.000725    3.66  0.000938  ( 0.028669 -0.005246 -0.009397)
 14:    349.51   0.002427   12.26  0.002167  ( 0.023504  0.021212  0.034126)
 15:    355.91   0.000202    1.02  0.000177  ( 0.009114 -0.008428 -0.004826)
 16:    392.05   0.000632    3.19  0.000503  (-0.009411 -0.012210 -0.016280)
 17:    429.71   0.000606    3.06  0.000440  (-0.007525 -0.019234  0.003694)
 18:    539.14   0.002835   14.33  0.001641  (-0.034375 -0.021436  0.000098)
 19:    589.81   0.000054    0.27  0.000028  ( 0.002719 -0.002989  0.003472)
 20:    619.84   0.009210   46.54  0.004637  ( 0.027425  0.031611  0.053717)
 21:    683.75   0.001412    7.13  0.000644  (-0.020937 -0.011375 -0.008754)
 22:    751.50   0.005561   28.10  0.002309  ( 0.028009  0.002421 -0.038973)
 23:    790.08   0.002567   12.97  0.001014  (-0.008780 -0.013751 -0.027343)
 24:    822.15   0.001383    6.99  0.000525  ( 0.010063  0.010032  0.017972)
 25:    844.18   0.039783  201.05  0.014706  ( 0.051892  0.058726  0.092546)
 26:    855.02   0.009674   48.89  0.003531  ( 0.001950  0.009867  0.058564)
 27:    984.81   0.007184   36.30  0.002276  (-0.028178 -0.029466 -0.024783)
 28:    987.94   0.030450  153.88  0.009618  ( 0.059070  0.051760  0.058737)
 29:   1005.86   0.000044    0.22  0.000014  ( 0.002382 -0.000897 -0.002665)
 30:   1016.04   0.001381    6.98  0.000424  ( 0.008962  0.010271  0.015442)
 31:   1021.85   0.012570   63.52  0.003839  (-0.034352 -0.036829 -0.036089)
 32:   1138.58   0.002045   10.33  0.000560  ( 0.013133 -0.015574  0.012061)
 33:   1144.26   0.043450  219.58  0.011850  (-0.046362 -0.051904 -0.083704)
 34:   1202.33   0.043153  218.08  0.011200  ( 0.045110  0.050879  0.081097)
 35:   1253.12   0.082591  417.38  0.020568  (-0.062131 -0.069120 -0.109223)
 36:   1292.00   0.000415    2.10  0.000100  ( 0.000406  0.008674  0.004977)
 37:   1351.34   0.075029  379.17  0.017326  (-0.069490 -0.062971 -0.092370)
 38:   1365.01   0.004167   21.06  0.000953  (-0.002641  0.029545  0.008528)
 39:   1419.39   0.000353    1.78  0.000078  ( 0.007217 -0.003878  0.003227)
 40:   1423.60   0.002933   14.82  0.000643  (-0.012510 -0.011633 -0.018740)
 41:   1438.02   0.011351   57.37  0.002463  ( 0.020533 -0.042958  0.014012)
 42:   1454.85   0.021323  107.76  0.004574  (-0.041108 -0.032706 -0.042594)
 43:   1485.68   0.001553    7.85  0.000326  (-0.016297  0.007010 -0.003374)
 44:   1492.23   0.050500  255.21  0.010561  ( 0.038480  0.049463  0.081447)
 45:   1602.86   0.026764  135.25  0.005211  (-0.001668  0.061801 -0.037264)
 46:   1661.38   0.367767  1858.55  0.069079  ( 0.110619  0.125508  0.202708)
 47:   2978.21   0.131768  665.90  0.013807  ( 0.052857  0.058028  0.087440)
 48:   3082.65   0.001418    7.17  0.000144  (-0.006664 -0.007050 -0.007033)
 49:   3143.95   0.000669    3.38  0.000066  ( 0.003041  0.004172  0.006307)
 50:   3204.11   0.000521    2.63  0.000051  (-0.002200 -0.004209 -0.005307)
 51:   3205.27   0.000625    3.16  0.000061  (-0.004223 -0.002854 -0.005904)
 52:   3227.73   0.002524   12.75  0.000244  ( 0.007974 -0.013304  0.001851)
 53:   3228.47   0.001282    6.48  0.000124  (-0.006822  0.007223 -0.005025)

* The epsilon (eps) is given for a Dirac delta lineshape.
** The dipole moment derivative (T) already includes vibrational overlap.

The first frequency considered to be a vibration is 8
The total number of vibrations considered is 46


--------------------------
THERMOCHEMISTRY AT 298.15K
--------------------------

Temperature         ... 298.15 K
Pressure            ... 1.00 atm
Total Mass          ... 138.15 AMU

Throughout the following assumptions are being made:
  (1) The electronic state is orbitally nondegenerate
  (2) There are no thermally accessible electronically excited states
  (3) Hindered rotations indicated by low frequency modes are not
      treated as such but are treated as vibrations and this may
      cause some error
  (4) All equations used are the standard statistical mechanics
      equations for an ideal gas
  (5) All vibrations are strictly harmonic

freq.       3.85  E(vib)   ...       0.59 
freq.       8.32  E(vib)   ...       0.58 
freq.      76.59  E(vib)   ...       0.49 
freq.      92.43  E(vib)   ...       0.47 
freq.     198.39  E(vib)   ...       0.35 
freq.     241.20  E(vib)   ...       0.31 
freq.     349.51  E(vib)   ...       0.23 
freq.     355.91  E(vib)   ...       0.22 
freq.     392.05  E(vib)   ...       0.20 
freq.     429.71  E(vib)   ...       0.18 
freq.     539.14  E(vib)   ...       0.12 
freq.     589.81  E(vib)   ...       0.10 
freq.     619.84  E(vib)   ...       0.09 
freq.     683.75  E(vib)   ...       0.07 
freq.     751.50  E(vib)   ...       0.06 
freq.     790.08  E(vib)   ...       0.05 
freq.     822.15  E(vib)   ...       0.05 
freq.     844.18  E(vib)   ...       0.04 
freq.     855.02  E(vib)   ...       0.04 
freq.     984.81  E(vib)   ...       0.02 
freq.     987.94  E(vib)   ...       0.02 
freq.    1005.86  E(vib)   ...       0.02 
freq.    1016.04  E(vib)   ...       0.02 
freq.    1021.85  E(vib)   ...       0.02 
freq.    1138.58  E(vib)   ...       0.01 
freq.    1144.26  E(vib)   ...       0.01 
freq.    1202.33  E(vib)   ...       0.01 
freq.    1253.12  E(vib)   ...       0.01 
freq.    1292.00  E(vib)   ...       0.01 
freq.    1351.34  E(vib)   ...       0.01 
freq.    1365.01  E(vib)   ...       0.01 
freq.    1419.39  E(vib)   ...       0.00 
freq.    1423.60  E(vib)   ...       0.00 
freq.    1438.02  E(vib)   ...       0.00 
freq.    1454.85  E(vib)   ...       0.00 
freq.    1485.68  E(vib)   ...       0.00 
freq.    1492.23  E(vib)   ...       0.00 
freq.    1602.86  E(vib)   ...       0.00 
freq.    1661.38  E(vib)   ...       0.00 
freq.    2978.21  E(vib)   ...       0.00 
freq.    3082.65  E(vib)   ...       0.00 
freq.    3143.95  E(vib)   ...       0.00 
freq.    3204.11  E(vib)   ...       0.00 
freq.    3205.27  E(vib)   ...       0.00 
freq.    3227.73  E(vib)   ...       0.00 
freq.    3228.47  E(vib)   ...       0.00 

------------
INNER ENERGY
------------

The inner energy is: U= E(el) + E(ZPE) + E(vib) + E(rot) + E(trans)
    E(el)   - is the total energy from the electronic structure calculation
              = E(kin-el) + E(nuc-el) + E(el-el) + E(nuc-nuc)
    E(ZPE)  - the the zero temperature vibrational energy from the frequency calculation
    E(vib)  - the the finite temperature correction to E(ZPE) due to population
              of excited vibrational states
    E(rot)  - is the rotational thermal energy
    E(trans)- is the translational thermal energy

Summary of contributions to the inner energy U:
Electronic energy                ...   -475.60070899 Eh
Zero point energy                ...      0.12861381 Eh      80.71 kcal/mol
Thermal vibrational correction   ...      0.00710288 Eh       4.46 kcal/mol
Thermal rotational correction    ...      0.00141627 Eh       0.89 kcal/mol
Thermal translational correction ...      0.00141627 Eh       0.89 kcal/mol
-----------------------------------------------------------------------
Total thermal energy                   -475.46215976 Eh


Summary of corrections to the electronic energy:
(perhaps to be used in another calculation)
Total thermal correction                  0.00993542 Eh       6.23 kcal/mol
Non-thermal (ZPE) correction              0.12861381 Eh      80.71 kcal/mol
-----------------------------------------------------------------------
Total correction                          0.13854923 Eh      86.94 kcal/mol


--------
ENTHALPY
--------

The enthalpy is H = U + kB*T
                kB is Boltzmann's constant
Total free energy                 ...   -475.46215976 Eh 
Thermal Enthalpy correction       ...      0.00094421 Eh       0.59 kcal/mol
-----------------------------------------------------------------------
Total Enthalpy                    ...   -475.46121555 Eh


Note: Only C1 symmetry has been detected, increase convergence thresholds 
      if your molecule has a higher symmetry. Symmetry factor of 1.0 is   
      used for the rotational entropy correction. 
 

Note: Rotational entropy computed according to Herzberg 
Infrared and Raman Spectra, Chapter V,1, Van Nostrand Reinhold, 1945 
Point Group:  C1, Symmetry Number:   1  
Rotational constants in cm-1:     0.125746     0.016698     0.015076 

Vibrational entropy computed according to the QRRHO of S. Grimme
Chem.Eur.J. 2012 18 9955


-------
ENTROPY
-------

The entropy contributions are T*S = T*(S(el)+S(vib)+S(rot)+S(trans))
     S(el)   - electronic entropy
     S(vib)  - vibrational entropy
     S(rot)  - rotational entropy
     S(trans)- translational entropy
The entropies will be listed as multiplied by the temperature to get
units of energy

Electronic entropy                ...      0.00000000 Eh      0.00 kcal/mol
Vibrational entropy               ...      0.01410387 Eh      8.85 kcal/mol
Rotational entropy                ...      0.01440197 Eh      9.04 kcal/mol
Translational entropy             ...      0.01932890 Eh     12.13 kcal/mol
-----------------------------------------------------------------------
Final entropy term                ...      0.04783474 Eh     30.02 kcal/mol

In case the symmetry of your molecule has not been determined correctly
or in case you have a reason to use a different symmetry number we print 
out the resulting rotational entropy values for sn=1,12 :
 --------------------------------------------------------
|  sn= 1 | S(rot)=       0.01440197 Eh      9.04 kcal/mol|
|  sn= 2 | S(rot)=       0.01374751 Eh      8.63 kcal/mol|
|  sn= 3 | S(rot)=       0.01336468 Eh      8.39 kcal/mol|
|  sn= 4 | S(rot)=       0.01309306 Eh      8.22 kcal/mol|
|  sn= 5 | S(rot)=       0.01288237 Eh      8.08 kcal/mol|
|  sn= 6 | S(rot)=       0.01271022 Eh      7.98 kcal/mol|
|  sn= 7 | S(rot)=       0.01256468 Eh      7.88 kcal/mol|
|  sn= 8 | S(rot)=       0.01243860 Eh      7.81 kcal/mol|
|  sn= 9 | S(rot)=       0.01232739 Eh      7.74 kcal/mol|
|  sn=10 | S(rot)=       0.01222791 Eh      7.67 kcal/mol|
|  sn=11 | S(rot)=       0.01213792 Eh      7.62 kcal/mol|
|  sn=12 | S(rot)=       0.01205577 Eh      7.57 kcal/mol|
 --------------------------------------------------------


-------------------
GIBBS FREE ENERGY
-------------------

The Gibbs free energy is G = H - T*S

Total enthalpy                    ...   -475.46121555 Eh 
Total entropy correction          ...     -0.04783474 Eh    -30.02 kcal/mol
-----------------------------------------------------------------------
Final Gibbs free energy         ...   -475.50905029 Eh

For completeness - the Gibbs free energy minus the electronic energy
G-E(el)                           ...      0.09165870 Eh     57.52 kcal/mol


Timings for individual modules:

Sum of individual times         ...    25600.606 sec (= 426.677 min)
GTO integral calculation        ...       65.256 sec (=   1.088 min)   0.3 %
SCF iterations                  ...    19506.969 sec (= 325.116 min)  76.2 %
SCF Gradient evaluation         ...     5120.466 sec (=  85.341 min)  20.0 %
Geometry relaxation             ...       21.325 sec (=   0.355 min)   0.1 %
Analytical frequency calculation...      886.590 sec (=  14.777 min)   3.5 %
                             ****ORCA TERMINATED NORMALLY****
TOTAL RUN TIME: 0 days 7 hours 7 minutes 57 seconds 804 msec
