
                                 *****************
                                 * O   R   C   A *
                                 *****************

                                            #,                                       
                                            ###                                      
                                            ####                                     
                                            #####                                    
                                            ######                                   
                                           ########,                                 
                                     ,,################,,,,,                         
                               ,,#################################,,                 
                          ,,##########################################,,             
                       ,#########################################, ''#####,          
                    ,#############################################,,   '####,        
                  ,##################################################,,,,####,       
                ,###########''''           ''''###############################       
              ,#####''   ,,,,##########,,,,          '''####'''          '####       
            ,##' ,,,,###########################,,,                        '##       
           ' ,,###''''                  '''############,,,                           
         ,,##''                                '''############,,,,        ,,,,,,###''
      ,#''                                            '''#######################'''  
     '                                                          ''''####''''         
             ,#######,   #######,   ,#######,      ##                                
            ,#'     '#,  ##    ##  ,#'     '#,    #''#        ######   ,####,        
            ##       ##  ##   ,#'  ##            #'  '#       #        #'  '#        
            ##       ##  #######   ##           ,######,      #####,   #    #        
            '#,     ,#'  ##    ##  '#,     ,#' ,#      #,         ##   #,  ,#        
             '#######'   ##     ##  '#######'  #'      '#     #####' # '####'        



                  #######################################################
                  #                        -***-                        #
                  #          Department of theory and spectroscopy      #
                  #    Directorship and core code : Frank Neese         #
                  #        Max Planck Institute fuer Kohlenforschung    #
                  #                Kaiser Wilhelm Platz 1               #
                  #                 D-45470 Muelheim/Ruhr               #
                  #                      Germany                        #
                  #                                                     #
                  #                  All rights reserved                #
                  #                        -***-                        #
                  #######################################################



                         Program Version 5.0.4 -  RELEASE  -

 With contributions from (in alphabetic order):
   Daniel Aravena         : Magnetic Suceptibility
   Michael Atanasov       : Ab Initio Ligand Field Theory (pilot matlab implementation)
   Alexander A. Auer      : GIAO ZORA, VPT2 properties, NMR spectrum
   Ute Becker             : Parallelization
   Giovanni Bistoni       : ED, misc. LED, open-shell LED, HFLD
   Martin Brehm           : Molecular dynamics
   Dmytro Bykov           : SCF Hessian
   Vijay G. Chilkuri      : MRCI spin determinant printing, contributions to CSF-ICE
   Dipayan Datta          : RHF DLPNO-CCSD density
   Achintya Kumar Dutta   : EOM-CC, STEOM-CC
   Dmitry Ganyushin       : Spin-Orbit,Spin-Spin,Magnetic field MRCI
   Miquel Garcia          : C-PCM and meta-GGA Hessian, CC/C-PCM, Gaussian charge scheme
   Yang Guo               : DLPNO-NEVPT2, F12-NEVPT2, CIM, IAO-localization
   Andreas Hansen         : Spin unrestricted coupled pair/coupled cluster methods
   Benjamin Helmich-Paris : MC-RPA, TRAH-SCF, COSX integrals
   Lee Huntington         : MR-EOM, pCC
   Robert Izsak           : Overlap fitted RIJCOSX, COSX-SCS-MP3, EOM
   Marcus Kettner         : VPT2
   Christian Kollmar      : KDIIS, OOCD, Brueckner-CCSD(T), CCSD density, CASPT2, CASPT2-K
   Simone Kossmann        : Meta GGA functionals, TD-DFT gradient, OOMP2, MP2 Hessian
   Martin Krupicka        : Initial AUTO-CI
   Lucas Lang             : DCDCAS
   Marvin Lechner         : AUTO-CI (C++ implementation), FIC-MRCC
   Dagmar Lenk            : GEPOL surface, SMD
   Dimitrios Liakos       : Extrapolation schemes; Compound Job, initial MDCI parallelization
   Dimitrios Manganas     : Further ROCIS development; embedding schemes
   Dimitrios Pantazis     : SARC Basis sets
   Anastasios Papadopoulos: AUTO-CI, single reference methods and gradients
   Taras Petrenko         : DFT Hessian,TD-DFT gradient, ASA, ECA, R-Raman, ABS, FL, XAS/XES, NRVS
   Peter Pinski           : DLPNO-MP2, DLPNO-MP2 Gradient
   Christoph Reimann      : Effective Core Potentials
   Marius Retegan         : Local ZFS, SOC
   Christoph Riplinger    : Optimizer, TS searches, QM/MM, DLPNO-CCSD(T), (RO)-DLPNO pert. Triples
   Tobias Risthaus        : Range-separated hybrids, TD-DFT gradient, RPA, STAB
   Michael Roemelt        : Original ROCIS implementation
   Masaaki Saitow         : Open-shell DLPNO-CCSD energy and density
   Barbara Sandhoefer     : DKH picture change effects
   Avijit Sen             : IP-ROCIS
   Kantharuban Sivalingam : CASSCF convergence, NEVPT2, FIC-MRCI
   Bernardo de Souza      : ESD, SOC TD-DFT
   Georgi Stoychev        : AutoAux, RI-MP2 NMR, DLPNO-MP2 response
   Willem Van den Heuvel  : Paramagnetic NMR
   Boris Wezisla          : Elementary symmetry handling
   Frank Wennmohs         : Technical directorship


 We gratefully acknowledge several colleagues who have allowed us to
 interface, adapt or use parts of their codes:
   Stefan Grimme, W. Hujo, H. Kruse, P. Pracht,  : VdW corrections, initial TS optimization,
                  C. Bannwarth, S. Ehlert          DFT functionals, gCP, sTDA/sTD-DF
   Ed Valeev, F. Pavosevic, A. Kumar             : LibInt (2-el integral package), F12 methods
   Garnet Chan, S. Sharma, J. Yang, R. Olivares  : DMRG
   Ulf Ekstrom                                   : XCFun DFT Library
   Mihaly Kallay                                 : mrcc  (arbitrary order and MRCC methods)
   Jiri Pittner, Ondrej Demel                    : Mk-CCSD
   Frank Weinhold                                : gennbo (NPA and NBO analysis)
   Christopher J. Cramer and Donald G. Truhlar   : smd solvation model
   Lars Goerigk                                  : TD-DFT with DH, B97 family of functionals
   V. Asgeirsson, H. Jonsson                     : NEB implementation
   FAccTs GmbH                                   : IRC, NEB, NEB-TS, DLPNO-Multilevel, CI-OPT
                                                   MM, QMMM, 2- and 3-layer-ONIOM, Crystal-QMMM,
                                                   LR-CPCM, SF, NACMEs, symmetry and pop. for TD-DFT,
                                                   nearIR, NL-DFT gradient (VV10), updates on ESD,
                                                   ML-optimized integration grids
   S Lehtola, MJT Oliveira, MAL Marques          : LibXC Library
   Liviu Ungur et al                             : ANISO software


 Your calculation uses the libint2 library for the computation of 2-el integrals
 For citations please refer to: http://libint.valeyev.net

 Your ORCA version has been built with support for libXC version: 5.1.0
 For citations please refer to: https://tddft.org/programs/libxc/

 This ORCA versions uses:
   CBLAS   interface :  Fast vector & matrix operations
   LAPACKE interface :  Fast linear algebra routines
   Shared memory     :  Shared parallel matrices


================================================================================

----- Orbital basis set information -----
Your calculation utilizes the basis: def2-TZVP
   F. Weigend and R. Ahlrichs, Phys. Chem. Chem. Phys. 7, 3297 (2005).

----- AuxJ basis set information -----
Your calculation utilizes the auxiliary basis: def2/J
   F. Weigend, Phys. Chem. Chem. Phys. 8, 1057 (2006).

================================================================================
                                        WARNINGS
                       Please study these warnings very carefully!
================================================================================



WARNING: Found flag for RIJCOSX approximation but no HF exchange needed!
  ===> : RIJCOSX  will be disabled and Split-RI-J is turned on

WARNING: Geometry Optimization
  ===> : Switching off AutoStart
         For restart on a previous wavefunction, please use MOREAD

INFO   : the flag for use of the SHARK integral package has been found!

================================================================================
                                       INPUT FILE
================================================================================
NAME = Fe_test5.inp
|  1> !BLYP DEF2-TZVP DEF2/J OPT FREQ PrintMOs RIJCOSX
|  2> 
|  3> %scf
|  4> maxIter 1000
|  5> end
|  6> 
|  7> %geom
|  8> maxIter 1000
|  9> end
| 10> 
| 11> * xyz 0 1
| 12>   Fe       -3.29174        2.30256       -1.37806
| 13>   Fe       -4.54073       -0.35402       -1.02957
| 14>   Fe       -2.66763       -2.05221        0.48308
| 15>   Fe       -0.62745        2.22942       -0.08359
| 16>   Fe       -2.93225        0.82812        1.13741
| 17>   Fe       -0.20471       -2.37191       -1.12889
| 18>   Fe        1.94779        1.31189        0.93686
| 19>   Fe       -0.31170       -0.44850        1.09663
| 20>   Fe        2.21066       -1.54931        0.28686
| 21>   Fe       -0.88054        1.96138       -3.02140
| 22>   Fe       -3.27628        0.34440       -3.59262
| 23>   Fe       -0.61592       -0.91894       -3.67573
| 24>   Fe       -2.86486       -2.34377       -2.43358
| 25>   Fe       -1.76037       -0.04567       -1.26247
| 26>   Fe        1.00187        0.27706       -1.56597
| 27> *
| 28> 
| 29> 
| 30>                          ****END OF INPUT****
================================================================================

                       *****************************
                       * Geometry Optimization Run *
                       *****************************

Geometry optimization settings:
Update method            Update   .... BFGS
Choice of coordinates    CoordSys .... Z-matrix Internals
Initial Hessian          InHess   .... Almoef's Model

Convergence Tolerances:
Energy Change            TolE     ....  5.0000e-06 Eh
Max. Gradient            TolMAXG  ....  3.0000e-04 Eh/bohr
RMS Gradient             TolRMSG  ....  1.0000e-04 Eh/bohr
Max. Displacement        TolMAXD  ....  4.0000e-03 bohr
RMS Displacement         TolRMSD  ....  2.0000e-03 bohr
Strict Convergence                ....  False
------------------------------------------------------------------------------
                        ORCA OPTIMIZATION COORDINATE SETUP
------------------------------------------------------------------------------

The optimization will be done in new redundant internal coordinates
Making redundant internal coordinates   ...  (new redundants) done
Evaluating the initial hessian          ...  (Almloef) done
Evaluating the coordinates              ...  done
Calculating the B-matrix                .... done
Calculating the G-matrix                .... done
Diagonalizing the G-matrix              .... done
The first mode is                       .... 2007
The number of degrees of freedom        ....   39

    -----------------------------------------------------------------
                    Redundant Internal Coordinates


    -----------------------------------------------------------------
         Definition                    Initial Value    Approx d2E/dq
    -----------------------------------------------------------------
      1. B(Fe  1,Fe  0)                  2.9562         0.202904   
      2. B(Fe  2,Fe  1)                  2.9463         0.210412   
      3. B(Fe  3,Fe  0)                  2.9630         0.197855   
      4. B(Fe  4,Fe  2)                  2.9655         0.196021   
      5. B(Fe  4,Fe  0)                  2.9378         0.217039   
      6. B(Fe  4,Fe  3)                  2.9608         0.199439   
      7. B(Fe  4,Fe  1)                  2.9463         0.210412   
      8. B(Fe  5,Fe  2)                  2.9608         0.199433   
      9. B(Fe  6,Fe  3)                  2.9181         0.233386   
     10. B(Fe  7,Fe  6)                  2.8688         0.279716   
     11. B(Fe  7,Fe  5)                  2.9434         0.212598   
     12. B(Fe  7,Fe  4)                  2.9153         0.235800   
     13. B(Fe  7,Fe  3)                  2.9434         0.212601   
     14. B(Fe  7,Fe  2)                  2.9153         0.235795   
     15. B(Fe  8,Fe  5)                  2.9181         0.233388   
     16. B(Fe  8,Fe  7)                  2.8688         0.279714   
     17. B(Fe  8,Fe  6)                  2.9459         0.210727   
     18. B(Fe  9,Fe  3)                  2.9608         0.199434   
     19. B(Fe  9,Fe  0)                  2.9378         0.217031   
     20. B(Fe 10,Fe  9)                  2.9463         0.210409   
     21. B(Fe 10,Fe  1)                  2.9421         0.213668   
     22. B(Fe 10,Fe  0)                  2.9562         0.202896   
     23. B(Fe 11,Fe 10)                  2.9463         0.210414   
     24. B(Fe 11,Fe  9)                  2.9655         0.196028   
     25. B(Fe 11,Fe  5)                  2.9608         0.199436   
     26. B(Fe 12,Fe 11)                  2.9378         0.217037   
     27. B(Fe 12,Fe 10)                  2.9562         0.202897   
     28. B(Fe 12,Fe  5)                  2.9630         0.197860   
     29. B(Fe 12,Fe  2)                  2.9378         0.217037   
     30. B(Fe 12,Fe  1)                  2.9562         0.202898   
     31. B(Fe 13,Fe  0)                  2.8058         0.352480   
     32. B(Fe 13,Fe 12)                  2.8058         0.352475   
     33. B(Fe 13,Fe 11)                  2.8100         0.347091   
     34. B(Fe 13,Fe  9)                  2.8100         0.347092   
     35. B(Fe 13,Fe  7)                  2.7975         0.363360   
     36. B(Fe 13,Fe  5)                  2.8017         0.357907   
     37. B(Fe 13,Fe  4)                  2.8100         0.347081   
     38. B(Fe 13,Fe 10)                  2.8071         0.350846   
     39. B(Fe 13,Fe  3)                  2.8017         0.357910   
     40. B(Fe 13,Fe  2)                  2.8100         0.347073   
     41. B(Fe 13,Fe  1)                  2.8071         0.350849   
     42. B(Fe 14,Fe 13)                  2.7975         0.363367   
     43. B(Fe 14,Fe 11)                  2.9153         0.235793   
     44. B(Fe 14,Fe  9)                  2.9152         0.235804   
     45. B(Fe 14,Fe  8)                  2.8688         0.279719   
     46. B(Fe 14,Fe  7)                  3.0564         0.140416   
     47. B(Fe 14,Fe  6)                  2.8688         0.279716   
     48. B(Fe 14,Fe  5)                  2.9435         0.212595   
     49. B(Fe 14,Fe  3)                  2.9434         0.212605   
     50. A(Fe  1,Fe  0,Fe 13)           58.2400         0.478664   
     51. A(Fe  3,Fe  0,Fe 10)          107.8319         0.430919   
     52. A(Fe  9,Fe  0,Fe 10)           59.9826         0.438154   
     53. A(Fe  3,Fe  0,Fe 13)           58.0341         0.476448   
     54. A(Fe  1,Fe  0,Fe 10)           59.6852         0.432875   
     55. A(Fe  9,Fe  0,Fe 13)           58.5271         0.484645   
     56. A(Fe  3,Fe  0,Fe  4)           60.2321         0.436174   
     57. A(Fe  4,Fe  0,Fe  9)          108.6773         0.443520   
     58. A(Fe  1,Fe  0,Fe  4)           59.9828         0.438160   
     59. A(Fe  1,Fe  0,Fe  9)          107.9595         0.438157   
     60. A(Fe  4,Fe  0,Fe 13)           58.5274         0.484649   
     61. A(Fe  1,Fe  0,Fe  3)          107.8319         0.430923   
     62. A(Fe  3,Fe  0,Fe  9)           60.2322         0.436171   
     63. A(Fe 10,Fe  0,Fe 13)           58.2399         0.478660   
     64. A(Fe  4,Fe  0,Fe 10)          107.9598         0.438157   
     65. A(Fe  4,Fe  1,Fe 10)          108.1112         0.439798   
     66. A(Fe  2,Fe  1,Fe 12)           59.6998         0.435715   
     67. A(Fe 10,Fe  1,Fe 12)           60.1575         0.436923   
     68. A(Fe  0,Fe  1,Fe  4)           59.6999         0.435718   
     69. A(Fe 12,Fe  1,Fe 13)           58.1984         0.478252   
     70. A(Fe  2,Fe  1,Fe 13)           58.4132         0.481469   
     71. A(Fe  0,Fe  1,Fe 13)           58.1984         0.478255   
     72. A(Fe  0,Fe  1,Fe 12)          108.0210         0.432876   
     73. A(Fe  4,Fe  1,Fe 13)           58.4130         0.481469   
     74. A(Fe 10,Fe  1,Fe 13)           58.3960         0.482836   
     75. A(Fe  4,Fe  1,Fe 12)          108.0526         0.435715   
     76. A(Fe  2,Fe  1,Fe  4)           60.4335         0.438581   
     77. A(Fe  0,Fe  1,Fe 10)           60.1576         0.436925   
     78. A(Fe  0,Fe  1,Fe  2)          108.0527         0.435718   
     79. A(Fe  2,Fe  1,Fe 10)          108.1112         0.439798   
     80. A(Fe  4,Fe  2,Fe  7)           59.4276         0.442004   
     81. A(Fe 12,Fe  2,Fe 13)           58.3877         0.483266   
     82. A(Fe  4,Fe  2,Fe 12)          108.0264         0.435442   
     83. A(Fe  1,Fe  2,Fe  5)          108.1532         0.434366   
     84. A(Fe  4,Fe  2,Fe 13)           58.1516         0.474282   
     85. A(Fe  4,Fe  2,Fe  5)          107.4109         0.428873   
     86. A(Fe  1,Fe  2,Fe  4)           59.7832         0.433020   
     87. A(Fe  1,Fe  2,Fe 12)           60.3175         0.441042   
     88. A(Fe  1,Fe  2,Fe  7)          107.7434         0.447710   
     89. A(Fe  1,Fe  2,Fe 13)           58.3156         0.480509   
     90. A(Fe  7,Fe  2,Fe 13)           58.4666         0.490733   
     91. A(Fe  7,Fe  2,Fe 12)          108.5296         0.450235   
     92. A(Fe  5,Fe  2,Fe 13)           58.0177         0.475790   
     93. A(Fe  5,Fe  2,Fe  7)           60.1156         0.443385   
     94. A(Fe  5,Fe  2,Fe 12)           60.3054         0.436798   
     95. A(Fe  4,Fe  3,Fe 13)           58.2927         0.478493   
     96. A(Fe  0,Fe  3,Fe 14)          107.1029         0.434556   
     97. A(Fe  7,Fe  3,Fe 14)           62.5547         0.440224   
     98. A(Fe  0,Fe  3,Fe 13)           58.1707         0.477791   
     99. A(Fe  0,Fe  3,Fe  7)          107.1028         0.434554   
    100. A(Fe  0,Fe  3,Fe  9)           59.4624         0.429590   
    101. A(Fe  6,Fe  3,Fe  7)           58.6036         0.447716   
    102. A(Fe  4,Fe  3,Fe 14)          108.9448         0.435180   
    103. A(Fe  6,Fe  3,Fe 14)           58.6037         0.447718   
    104. A(Fe  6,Fe  3,Fe  9)          113.2007         0.442563   
    105. A(Fe  6,Fe  3,Fe 13)          104.3995         0.492600   
    106. A(Fe  4,Fe  3,Fe  9)          107.4450         0.430205   
    107. A(Fe  7,Fe  3,Fe  9)          108.9446         0.435176   
    108. A(Fe  4,Fe  3,Fe  6)          113.2007         0.442565   
    109. A(Fe  0,Fe  3,Fe  4)           59.4623         0.429592   
    110. A(Fe  9,Fe  3,Fe 13)           58.2925         0.478491   
    111. A(Fe  9,Fe  3,Fe 14)           59.1740         0.435178   
    112. A(Fe 13,Fe  3,Fe 14)           58.2172         0.484170   
    113. A(Fe  7,Fe  3,Fe 13)           58.2172         0.484168   
    114. A(Fe  4,Fe  3,Fe  7)           59.1741         0.435178   
    115. A(Fe  0,Fe  3,Fe  6)          162.5702         0.441927   
    116. A(Fe  3,Fe  4,Fe  7)           60.1156         0.443389   
    117. A(Fe  2,Fe  4,Fe  7)           59.4278         0.442005   
    118. A(Fe  1,Fe  4,Fe  3)          108.1533         0.434369   
    119. A(Fe  0,Fe  4,Fe  7)          108.5298         0.450238   
    120. A(Fe  0,Fe  4,Fe  3)           60.3056         0.436801   
    121. A(Fe  1,Fe  4,Fe  7)          107.7435         0.447711   
    122. A(Fe  0,Fe  4,Fe  1)           60.3174         0.441043   
    123. A(Fe  1,Fe  4,Fe  2)           59.7832         0.433020   
    124. A(Fe  0,Fe  4,Fe  2)          108.0264         0.435443   
    125. A(Fe  1,Fe  4,Fe 13)           58.3157         0.480511   
    126. A(Fe  0,Fe  4,Fe 13)           58.3877         0.483269   
    127. A(Fe  7,Fe  4,Fe 13)           58.4667         0.490737   
    128. A(Fe  3,Fe  4,Fe 13)           58.0178         0.475794   
    129. A(Fe  2,Fe  4,Fe 13)           58.1518         0.474283   
    130. A(Fe  2,Fe  4,Fe  3)          107.4112         0.428875   
    131. A(Fe  7,Fe  5,Fe 12)          107.1029         0.434555   
    132. A(Fe 12,Fe  5,Fe 14)          107.1029         0.434554   
    133. A(Fe  8,Fe  5,Fe 14)           58.6035         0.447715   
    134. A(Fe  2,Fe  5,Fe 14)          108.9446         0.435174   
    135. A(Fe 11,Fe  5,Fe 12)           59.4623         0.429593   
    136. A(Fe  8,Fe  5,Fe 12)          162.5702         0.441930   
    137. A(Fe 13,Fe  5,Fe 14)           58.2170         0.484165   
    138. A(Fe 11,Fe  5,Fe 14)           59.1741         0.435175   
    139. A(Fe  2,Fe  5,Fe 12)           59.4623         0.429592   
    140. A(Fe  7,Fe  5,Fe 14)           62.5545         0.440219   
    141. A(Fe  7,Fe  5,Fe  8)           58.6037         0.447716   
    142. A(Fe  8,Fe  5,Fe 13)          104.3993         0.492599   
    143. A(Fe  2,Fe  5,Fe  8)          113.2008         0.442563   
    144. A(Fe  7,Fe  5,Fe 13)           58.2172         0.484166   
    145. A(Fe 12,Fe  5,Fe 13)           58.1709         0.477792   
    146. A(Fe 11,Fe  5,Fe 13)           58.2925         0.478491   
    147. A(Fe  8,Fe  5,Fe 11)          113.2006         0.442564   
    148. A(Fe  2,Fe  5,Fe 13)           58.2928         0.478490   
    149. A(Fe  7,Fe  5,Fe 11)          108.9446         0.435176   
    150. A(Fe  2,Fe  5,Fe 11)          107.4449         0.430204   
    151. A(Fe  2,Fe  5,Fe  7)           59.1741         0.435175   
    152. A(Fe  8,Fe  6,Fe 14)           59.1069         0.461976   
    153. A(Fe  7,Fe  6,Fe 14)           64.3757         0.486667   
    154. A(Fe  3,Fe  6,Fe 14)           61.1403         0.470698   
    155. A(Fe  7,Fe  6,Fe  8)           59.1070         0.461976   
    156. A(Fe  3,Fe  6,Fe  8)          107.8776         0.446998   
    157. A(Fe  3,Fe  6,Fe  7)           61.1404         0.470698   
    158. A(Fe  3,Fe  7,Fe 13)           58.3534         0.485522   
    159. A(Fe  3,Fe  7,Fe  4)           60.7103         0.448553   
    160. A(Fe  2,Fe  7,Fe  4)           61.1446         0.457079   
    161. A(Fe  8,Fe  7,Fe 14)           57.8121         0.429232   
    162. A(Fe  6,Fe  7,Fe 14)           57.8122         0.429233   
    163. A(Fe  4,Fe  7,Fe 14)          107.1314         0.416332   
    164. A(Fe  3,Fe  7,Fe 14)           58.7226         0.408748   
    165. A(Fe  2,Fe  7,Fe 14)          107.1317         0.416330   
    166. A(Fe  3,Fe  7,Fe  5)          107.1719         0.440221   
    167. A(Fe  4,Fe  7,Fe  8)          164.2280         0.471587   
    168. A(Fe  6,Fe  7,Fe  8)           61.7860         0.486666   
    169. A(Fe  2,Fe  7,Fe  3)          109.2327         0.448551   
    170. A(Fe  5,Fe  7,Fe  8)           60.2558         0.462722   
    171. A(Fe  3,Fe  7,Fe  8)          109.2837         0.462723   
    172. A(Fe  2,Fe  7,Fe  8)          116.1076         0.471585   
    173. A(Fe  5,Fe  7,Fe 14)           58.7228         0.408747   
    174. A(Fe  6,Fe  7,Fe 13)          105.8150         0.510926   
    175. A(Fe  5,Fe  7,Fe 13)           58.3535         0.485521   
    176. A(Fe  4,Fe  7,Fe 13)           58.8856         0.494926   
    177. A(Fe  5,Fe  7,Fe  6)          109.2839         0.462723   
    178. A(Fe  2,Fe  7,Fe 13)           58.8857         0.494925   
    179. A(Fe  4,Fe  7,Fe  6)          116.1075         0.471588   
    180. A(Fe  3,Fe  7,Fe  6)           60.2559         0.462724   
    181. A(Fe  2,Fe  7,Fe  6)          164.2283         0.471586   
    182. A(Fe  8,Fe  7,Fe 13)          105.8148         0.510925   
    183. A(Fe  2,Fe  7,Fe  5)           60.7103         0.448550   
    184. A(Fe 13,Fe  7,Fe 14)           56.8892         0.449988   
    185. A(Fe  4,Fe  7,Fe  5)          109.2327         0.448552   
    186. A(Fe  7,Fe  8,Fe 14)           64.3757         0.486667   
    187. A(Fe  6,Fe  8,Fe 14)           59.1070         0.461977   
    188. A(Fe  5,Fe  8,Fe 14)           61.1407         0.470699   
    189. A(Fe  5,Fe  8,Fe  7)           61.1405         0.470698   
    190. A(Fe  6,Fe  8,Fe  7)           59.1069         0.461975   
    191. A(Fe  5,Fe  8,Fe  6)          107.8779         0.446999   
    192. A(Fe 10,Fe  9,Fe 14)          107.7438         0.447712   
    193. A(Fe  3,Fe  9,Fe 14)           60.1155         0.443388   
    194. A(Fe  0,Fe  9,Fe 14)          108.5296         0.450236   
    195. A(Fe  0,Fe  9,Fe  3)           60.3054         0.436796   
    196. A(Fe 11,Fe  9,Fe 13)           58.1517         0.474289   
    197. A(Fe 10,Fe  9,Fe 13)           58.3158         0.480513   
    198. A(Fe  3,Fe  9,Fe 13)           58.0178         0.475794   
    199. A(Fe  0,Fe  9,Fe 13)           58.3877         0.483268   
    200. A(Fe 10,Fe  9,Fe 11)           59.7833         0.433022   
    201. A(Fe  3,Fe  9,Fe 11)          107.4112         0.428876   
    202. A(Fe  0,Fe  9,Fe 11)          108.0264         0.435443   
    203. A(Fe  0,Fe  9,Fe 10)           60.3175         0.441039   
    204. A(Fe  3,Fe  9,Fe 10)          108.1533         0.434365   
    205. A(Fe 13,Fe  9,Fe 14)           58.4667         0.490741   
    206. A(Fe 11,Fe  9,Fe 14)           59.4280         0.442009   
    207. A(Fe  9,Fe 10,Fe 12)          108.0523         0.435714   
    208. A(Fe  1,Fe 10,Fe 12)           60.1574         0.436922   
    209. A(Fe  0,Fe 10,Fe 12)          108.0206         0.432872   
    210. A(Fe 11,Fe 10,Fe 12)           59.6998         0.435716   
    211. A(Fe 12,Fe 10,Fe 13)           58.1984         0.478251   
    212. A(Fe 11,Fe 10,Fe 13)           58.4128         0.481469   
    213. A(Fe  9,Fe 10,Fe 13)           58.4128         0.481467   
    214. A(Fe  1,Fe 10,Fe 13)           58.3959         0.482835   
    215. A(Fe  0,Fe 10,Fe 13)           58.1983         0.478251   
    216. A(Fe  9,Fe 10,Fe 11)           60.4333         0.438580   
    217. A(Fe  1,Fe 10,Fe 11)          108.1110         0.439799   
    218. A(Fe  0,Fe 10,Fe 11)          108.0524         0.435715   
    219. A(Fe  1,Fe 10,Fe  9)          108.1109         0.439797   
    220. A(Fe  0,Fe 10,Fe  9)           59.6999         0.435713   
    221. A(Fe  0,Fe 10,Fe  1)           60.1572         0.436922   
    222. A(Fe 13,Fe 11,Fe 14)           58.4665         0.490737   
    223. A(Fe 10,Fe 11,Fe 12)           60.3176         0.441043   
    224. A(Fe  9,Fe 11,Fe 12)          108.0266         0.435445   
    225. A(Fe  5,Fe 11,Fe 12)           60.3054         0.436799   
    226. A(Fe 12,Fe 11,Fe 13)           58.3878         0.483271   
    227. A(Fe 10,Fe 11,Fe 13)           58.3158         0.480515   
    228. A(Fe  9,Fe 11,Fe 13)           58.1516         0.474289   
    229. A(Fe  5,Fe 11,Fe 13)           58.0179         0.475795   
    230. A(Fe  9,Fe 11,Fe 10)           59.7835         0.433023   
    231. A(Fe  5,Fe 11,Fe 10)          108.1534         0.434368   
    232. A(Fe  5,Fe 11,Fe  9)          107.4112         0.428876   
    233. A(Fe 12,Fe 11,Fe 14)          108.5297         0.450235   
    234. A(Fe 10,Fe 11,Fe 14)          107.7436         0.447710   
    235. A(Fe  9,Fe 11,Fe 14)           59.4276         0.442006   
    236. A(Fe  5,Fe 11,Fe 14)           60.1157         0.443386   
    237. A(Fe 10,Fe 12,Fe 11)           59.9826         0.438156   
    238. A(Fe  5,Fe 12,Fe 11)           60.2322         0.436175   
    239. A(Fe  2,Fe 12,Fe 11)          108.6776         0.443521   
    240. A(Fe  1,Fe 12,Fe 11)          107.9594         0.438157   
    241. A(Fe  5,Fe 12,Fe 10)          107.8319         0.430921   
    242. A(Fe  2,Fe 12,Fe 10)          107.9597         0.438156   
    243. A(Fe  1,Fe 12,Fe 10)           59.6851         0.432873   
    244. A(Fe 11,Fe 12,Fe 13)           58.5271         0.484647   
    245. A(Fe 10,Fe 12,Fe 13)           58.2399         0.478659   
    246. A(Fe  5,Fe 12,Fe 13)           58.0342         0.476448   
    247. A(Fe  2,Fe 12,Fe 13)           58.5274         0.484646   
    248. A(Fe  1,Fe 12,Fe 13)           58.2399         0.478660   
    249. A(Fe  2,Fe 12,Fe  5)           60.2323         0.436175   
    250. A(Fe  1,Fe 12,Fe  5)          107.8319         0.430922   
    251. A(Fe  1,Fe 12,Fe  2)           59.9826         0.438157   
    252. A(Fe  0,Fe 13,Fe  1)           63.5615         0.530082   
    253. A(Fe 11,Fe 13,Fe 12)           63.0850         0.529007   
    254. A(Fe 10,Fe 13,Fe 12)           63.5617         0.530080   
    255. A(Fe  7,Fe 13,Fe 12)          115.9683         0.533593   
    256. A(Fe  5,Fe 13,Fe 12)           63.7950         0.532074   
    257. A(Fe  4,Fe 13,Fe 12)          116.5506         0.529004   
    258. A(Fe  2,Fe 13,Fe 12)           63.0849         0.529002   
    259. A(Fe  1,Fe 13,Fe 12)           63.5617         0.530081   
    260. A(Fe  0,Fe 13,Fe 12)          116.9641         0.530544   
    261. A(Fe 10,Fe 13,Fe 11)           63.2713         0.528546   
    262. A(Fe  9,Fe 13,Fe 11)           63.6967         0.527477   
    263. A(Fe  9,Fe 13,Fe 12)          116.5508         0.529007   
    264. A(Fe  7,Fe 13,Fe 11)          117.9408         0.532047   
    265. A(Fe  5,Fe 13,Fe 11)           63.6897         0.530533   
    266. A(Fe  3,Fe 13,Fe 11)          116.6819         0.530534   
    267. A(Fe  2,Fe 13,Fe 11)          116.2995         0.527472   
    268. A(Fe  1,Fe 13,Fe 11)          116.1367         0.528547   
    269. A(Fe  0,Fe 13,Fe 11)          116.5509         0.529009   
    270. A(Fe  9,Fe 13,Fe 10)           63.2715         0.528546   
    271. A(Fe  5,Fe 13,Fe 10)          117.0530         0.531610   
    272. A(Fe  4,Fe 13,Fe 10)          116.1368         0.528543   
    273. A(Fe  3,Fe 13,Fe 10)          117.0533         0.531611   
    274. A(Fe  2,Fe 13,Fe 10)          116.1366         0.528541   
    275. A(Fe  1,Fe 13,Fe 10)           63.2080         0.529619   
    276. A(Fe  0,Fe 13,Fe 10)           63.5618         0.530082   
    277. A(Fe  7,Fe 13,Fe  9)          117.9408         0.532047   
    278. A(Fe  5,Fe 13,Fe  9)          116.6818         0.530533   
    279. A(Fe  4,Fe 13,Fe  9)          116.2996         0.527474   
    280. A(Fe  3,Fe 13,Fe  9)           63.6898         0.530534   
    281. A(Fe  1,Fe 13,Fe  9)          116.1368         0.528547   
    282. A(Fe  0,Fe 13,Fe  9)           63.0853         0.529009   
    283. A(Fe  5,Fe 13,Fe  7)           63.4294         0.535135   
    284. A(Fe  4,Fe 13,Fe  7)           62.6477         0.532044   
    285. A(Fe  3,Fe 13,Fe  7)           63.4293         0.535135   
    286. A(Fe  2,Fe 13,Fe  7)           62.6477         0.532041   
    287. A(Fe  1,Fe 13,Fe  7)          115.2851         0.533128   
    288. A(Fe  0,Fe 13,Fe  7)          115.9685         0.533594   
    289. A(Fe  4,Fe 13,Fe  5)          116.6816         0.530530   
    290. A(Fe  3,Fe 13,Fe  5)          115.4457         0.533611   
    291. A(Fe  2,Fe 13,Fe  5)           63.6896         0.530528   
    292. A(Fe  1,Fe 13,Fe  5)          117.0530         0.531611   
    293. A(Fe  3,Fe 13,Fe  4)           63.6895         0.530531   
    294. A(Fe  2,Fe 13,Fe  4)           63.6966         0.527469   
    295. A(Fe  1,Fe 13,Fe  4)           63.2713         0.528544   
    296. A(Fe  0,Fe 13,Fe  4)           63.0849         0.529006   
    297. A(Fe  5,Fe 13,Fe 14)           63.4295         0.535137   
    298. A(Fe  4,Fe 13,Fe 14)          117.9405         0.532046   
    299. A(Fe 12,Fe 13,Fe 14)          115.9687         0.533595   
    300. A(Fe 11,Fe 13,Fe 14)           62.6480         0.532049   
    301. A(Fe 10,Fe 13,Fe 14)          115.2855         0.533129   
    302. A(Fe  9,Fe 13,Fe 14)           62.6478         0.532049   
    303. A(Fe  2,Fe 13,Fe  3)          116.6816         0.530529   
    304. A(Fe  3,Fe 13,Fe 14)           63.4293         0.535138   
    305. A(Fe  1,Fe 13,Fe  3)          117.0530         0.531611   
    306. A(Fe  2,Fe 13,Fe 14)          117.9407         0.532044   
    307. A(Fe  0,Fe 13,Fe 14)          115.9686         0.533596   
    308. A(Fe  0,Fe 13,Fe  3)           63.7952         0.532076   
    309. A(Fe  1,Fe 13,Fe  2)           63.2712         0.528542   
    310. A(Fe  0,Fe 13,Fe  2)          116.5505         0.529003   
    311. A(Fe  7,Fe 13,Fe 14)           66.2213         0.536666   
    312. A(Fe  7,Fe 14,Fe  8)           57.8122         0.429234   
    313. A(Fe  6,Fe 14,Fe  8)           61.7861         0.486668   
    314. A(Fe  5,Fe 14,Fe  8)           60.2559         0.462722   
    315. A(Fe  3,Fe 14,Fe  8)          109.2840         0.462726   
    316. A(Fe  6,Fe 14,Fe  7)           57.8121         0.429233   
    317. A(Fe  5,Fe 14,Fe  7)           58.7227         0.408746   
    318. A(Fe  3,Fe 14,Fe  7)           58.7227         0.408749   
    319. A(Fe  5,Fe 14,Fe  6)          109.2837         0.462722   
    320. A(Fe  3,Fe 14,Fe  6)           60.2560         0.462725   
    321. A(Fe  3,Fe 14,Fe  5)          107.1719         0.440221   
    322. A(Fe 11,Fe 14,Fe 13)           58.8854         0.494926   
    323. A(Fe  9,Fe 14,Fe 13)           58.8855         0.494930   
    324. A(Fe  8,Fe 14,Fe 13)          105.8151         0.510929   
    325. A(Fe  6,Fe 14,Fe 13)          105.8151         0.510928   
    326. A(Fe  5,Fe 14,Fe 13)           58.3535         0.485521   
    327. A(Fe  3,Fe 14,Fe 13)           58.3536         0.485525   
    328. A(Fe  9,Fe 14,Fe 11)           61.1444         0.457079   
    329. A(Fe  8,Fe 14,Fe 11)          116.1074         0.471586   
    330. A(Fe  7,Fe 14,Fe 11)          107.1314         0.416330   
    331. A(Fe  6,Fe 14,Fe 11)          164.2281         0.471585   
    332. A(Fe  5,Fe 14,Fe 11)           60.7102         0.448548   
    333. A(Fe  3,Fe 14,Fe 11)          109.2327         0.448552   
    334. A(Fe  8,Fe 14,Fe  9)          164.2283         0.471590   
    335. A(Fe  7,Fe 14,Fe 13)           56.8894         0.449990   
    336. A(Fe  7,Fe 14,Fe  9)          107.1317         0.416333   
    337. A(Fe  6,Fe 14,Fe  9)          116.1079         0.471589   
    338. A(Fe  5,Fe 14,Fe  9)          109.2325         0.448552   
    339. A(Fe  3,Fe 14,Fe  9)           60.7105         0.448555   
    340. D(Fe 13,Fe  1,Fe  0,Fe  9)     32.2040         0.001533   
    341. D(Fe  2,Fe  1,Fe  0,Fe 10)    100.9502         0.001533   
    342. D(Fe  4,Fe  1,Fe  0,Fe  9)    101.6256         0.001533   
    343. D(Fe  4,Fe  1,Fe  0,Fe  3)     37.9842         0.001533   
    344. D(Fe 12,Fe  1,Fe  0,Fe 13)    -31.3754         0.001533   
    345. D(Fe 12,Fe  1,Fe  0,Fe 10)     37.8218         0.001533   
    346. D(Fe 10,Fe  1,Fe  0,Fe  9)    -36.9932         0.001533   
    347. D(Fe  4,Fe  1,Fe  0,Fe 10)    138.6188         0.001533   
    348. D(Fe  2,Fe  1,Fe  0,Fe  4)    -37.6686         0.001533   
    349. D(Fe 13,Fe  1,Fe  0,Fe 10)     69.1972         0.001533   
    350. D(Fe  2,Fe  1,Fe  0,Fe  3)      0.3156         0.001533   
    351. D(Fe 12,Fe  1,Fe  0,Fe  3)    -62.8128         0.001533   
    352. D(Fe 10,Fe  1,Fe  0,Fe  3)   -100.6346         0.001533   
    353. D(Fe 10,Fe  1,Fe  0,Fe 13)    -69.1972         0.001533   
    354. D(Fe 13,Fe  1,Fe  0,Fe  4)    -69.4216         0.001533   
    355. D(Fe  2,Fe  1,Fe  0,Fe  9)     63.9570         0.001533   
    356. D(Fe 10,Fe  1,Fe  0,Fe  4)   -138.6188         0.001533   
    357. D(Fe 13,Fe  1,Fe  0,Fe  3)    -31.4374         0.001533   
    358. D(Fe  2,Fe  1,Fe  0,Fe 13)     31.7529         0.001533   
    359. D(Fe  4,Fe  1,Fe  0,Fe 13)     69.4216         0.001533   
    360. D(Fe 12,Fe  1,Fe  0,Fe  9)      0.8286         0.001533   
    361. D(Fe 12,Fe  1,Fe  0,Fe  4)   -100.7970         0.001533   
    362. D(Fe  7,Fe  2,Fe  1,Fe 13)     32.5634         0.001535   
    363. D(Fe  5,Fe  2,Fe  1,Fe 10)      0.9926         0.001535   
    364. D(Fe 13,Fe  2,Fe  1,Fe 10)     31.9657         0.001535   
    365. D(Fe 12,Fe  2,Fe  1,Fe  0)   -100.7429         0.001535   
    366. D(Fe  7,Fe  2,Fe  1,Fe 10)     64.5291         0.001535   
    367. D(Fe 12,Fe  2,Fe  1,Fe 13)    -69.0718         0.001535   
    368. D(Fe 13,Fe  2,Fe  1,Fe  0)    -31.6710         0.001535   
    369. D(Fe  4,Fe  2,Fe  1,Fe 10)    100.9811         0.001535   
    370. D(Fe  5,Fe  2,Fe  1,Fe 12)     38.0987         0.001535   
    371. D(Fe 13,Fe  2,Fe  1,Fe  4)    -69.0154         0.001535   
    372. D(Fe 13,Fe  2,Fe  1,Fe 12)     69.0718         0.001535   
    373. D(Fe  7,Fe  2,Fe  1,Fe  4)    -36.4520         0.001535   
    374. D(Fe  4,Fe  2,Fe  1,Fe  0)     37.3444         0.001535   
    375. D(Fe 12,Fe  2,Fe  1,Fe 10)    -37.1061         0.001535   
    376. D(Fe  5,Fe  2,Fe  1,Fe  0)    -62.6442         0.001535   
    377. D(Fe  7,Fe  2,Fe  1,Fe 12)    101.6353         0.001535   
    378. D(Fe  4,Fe  2,Fe  1,Fe 12)    138.0873         0.001535   
    379. D(Fe  5,Fe  2,Fe  1,Fe  4)    -99.9886         0.001535   
    380. D(Fe  4,Fe  2,Fe  1,Fe 13)     69.0154         0.001535   
    381. D(Fe  7,Fe  2,Fe  1,Fe  0)      0.8924         0.001535   
    382. D(Fe  5,Fe  2,Fe  1,Fe 13)    -30.9732         0.001535   
    383. D(Fe 12,Fe  2,Fe  1,Fe  4)   -138.0873         0.001535   
    384. D(Fe  7,Fe  3,Fe  0,Fe 13)    -32.9021         0.001533   
    385. D(Fe 14,Fe  3,Fe  0,Fe  9)    -36.4861         0.001533   
    386. D(Fe  4,Fe  3,Fe  0,Fe 13)    -69.3883         0.001533   
    387. D(Fe 13,Fe  3,Fe  0,Fe 10)    -31.5156         0.001533   
    388. D(Fe  6,Fe  3,Fe  0,Fe  1)     31.5152         0.001533   
    389. D(Fe 14,Fe  3,Fe  0,Fe 13)     32.9018         0.001533   
    390. D(Fe  9,Fe  3,Fe  0,Fe  1)    100.9036         0.001533   
    391. D(Fe  7,Fe  3,Fe  0,Fe  9)   -102.2899         0.001533   
    392. D(Fe 13,Fe  3,Fe  0,Fe  4)     69.3883         0.001533   
    393. D(Fe 14,Fe  3,Fe  0,Fe  4)    102.2900         0.001533   
    394. D(Fe  9,Fe  3,Fe  0,Fe  4)    138.7761         0.001533   
    395. D(Fe 13,Fe  3,Fe  0,Fe  1)     31.5158         0.001533   
    396. D(Fe  9,Fe  3,Fe  0,Fe 13)     69.3878         0.001533   
    397. D(Fe  7,Fe  3,Fe  0,Fe  4)     36.4862         0.001533   
    398. D(Fe  9,Fe  3,Fe  0,Fe 10)     37.8723         0.001533   
    399. D(Fe  4,Fe  3,Fe  0,Fe  1)    -37.8725         0.001533   
    400. D(Fe  7,Fe  3,Fe  0,Fe  1)     -1.3863         0.001533   
    401. D(Fe 14,Fe  3,Fe  0,Fe  1)     64.4175         0.001533   
    402. D(Fe 14,Fe  3,Fe  0,Fe 10)      1.3862         0.001533   
    403. D(Fe  4,Fe  3,Fe  0,Fe  9)   -138.7761         0.001533   
    404. D(Fe  6,Fe  3,Fe  0,Fe 13)     -0.0005         0.001533   
    405. D(Fe  4,Fe  3,Fe  0,Fe 10)   -100.9038         0.001533   
    406. D(Fe 13,Fe  3,Fe  0,Fe  9)    -69.3878         0.001533   
    407. D(Fe  6,Fe  3,Fe  0,Fe  9)    -69.3884         0.001533   
    408. D(Fe  6,Fe  3,Fe  0,Fe 10)    -31.5161         0.001533   
    409. D(Fe  7,Fe  3,Fe  0,Fe 10)    -64.4176         0.001533   
    410. D(Fe  6,Fe  3,Fe  0,Fe  4)     69.3877         0.001533   
    411. D(Fe 13,Fe  4,Fe  1,Fe  2)     69.0156         0.001535   
    412. D(Fe  3,Fe  4,Fe  2,Fe  1)   -101.2577         0.001531   
    413. D(Fe  7,Fe  4,Fe  0,Fe  9)     -0.0979         0.001537   
    414. D(Fe  0,Fe  4,Fe  2,Fe  5)     63.6466         0.001531   
    415. D(Fe  7,Fe  4,Fe  1,Fe  0)   -101.6354         0.001535   
    416. D(Fe  1,Fe  4,Fe  2,Fe 13)     69.2821         0.001531   
    417. D(Fe  0,Fe  4,Fe  2,Fe  1)    -37.6111         0.001531   
    418. D(Fe 13,Fe  4,Fe  1,Fe 10)    -31.9655         0.001535   
    419. D(Fe  0,Fe  4,Fe  2,Fe 13)     31.6710         0.001531   
    420. D(Fe  0,Fe  4,Fe  2,Fe 12)      0.0003         0.001531   
    421. D(Fe  3,Fe  4,Fe  1,Fe 10)     -0.9923         0.001535   
    422. D(Fe  1,Fe  4,Fe  2,Fe  5)    101.2577         0.001531   
    423. D(Fe  7,Fe  4,Fe  1,Fe 12)     -0.8925         0.001535   
    424. D(Fe 13,Fe  4,Fe  1,Fe 12)     31.6711         0.001535   
    425. D(Fe  2,Fe  4,Fe  1,Fe  0)   -138.0875         0.001535   
    426. D(Fe  2,Fe  4,Fe  1,Fe 12)    -37.3446         0.001535   
    427. D(Fe 13,Fe  4,Fe  0,Fe  1)     68.9562         0.001537   
    428. D(Fe  2,Fe  4,Fe  1,Fe 13)    -69.0156         0.001535   
    429. D(Fe  3,Fe  4,Fe  2,Fe 12)    -63.6463         0.001531   
    430. D(Fe  0,Fe  4,Fe  3,Fe  7)   -138.5603         0.001533   
    431. D(Fe 13,Fe  4,Fe  3,Fe  7)    -69.3718         0.001533   
    432. D(Fe  1,Fe  4,Fe  3,Fe  9)      1.5941         0.001533   
    433. D(Fe  0,Fe  4,Fe  1,Fe 13)     69.0719         0.001535   
    434. D(Fe 13,Fe  4,Fe  3,Fe 14)    -29.9320         0.001533   
    435. D(Fe  7,Fe  4,Fe  1,Fe  2)     36.4521         0.001535   
    436. D(Fe  3,Fe  4,Fe  0,Fe 13)     68.5943         0.001537   
    437. D(Fe  3,Fe  4,Fe  0,Fe 10)    100.6873         0.001537   
    438. D(Fe 13,Fe  4,Fe  1,Fe  0)    -69.0719         0.001535   
    439. D(Fe  7,Fe  4,Fe  2,Fe  1)   -138.9093         0.001531   
    440. D(Fe  7,Fe  4,Fe  1,Fe 13)    -32.5635         0.001535   
    441. D(Fe  3,Fe  4,Fe  1,Fe 12)     62.6442         0.001535   
    442. D(Fe 13,Fe  4,Fe  2,Fe  5)     31.9756         0.001531   
    443. D(Fe  2,Fe  4,Fe  3,Fe  0)    101.2162         0.001533   
    444. D(Fe  7,Fe  4,Fe  3,Fe  9)    102.0503         0.001533   
    445. D(Fe  3,Fe  4,Fe  1,Fe  0)    -38.0987         0.001535   
    446. D(Fe  2,Fe  4,Fe  3,Fe 14)      2.0957         0.001533   
    447. D(Fe 13,Fe  4,Fe  0,Fe  9)    -31.4486         0.001537   
    448. D(Fe  1,Fe  4,Fe  0,Fe  3)   -137.5505         0.001537   
    449. D(Fe  2,Fe  4,Fe  3,Fe 13)     32.0278         0.001533   
    450. D(Fe  1,Fe  4,Fe  3,Fe  6)   -124.1361         0.001533   
    451. D(Fe  2,Fe  4,Fe  3,Fe  9)     64.7063         0.001533   
    452. D(Fe 13,Fe  4,Fe  3,Fe  6)    -93.0516         0.001533   
    453. D(Fe  0,Fe  4,Fe  2,Fe  7)    101.2982         0.001531   
    454. D(Fe  7,Fe  4,Fe  2,Fe 13)    -69.6272         0.001531   
    455. D(Fe  1,Fe  4,Fe  3,Fe  7)   -100.4563         0.001533   
    456. D(Fe  7,Fe  4,Fe  0,Fe 10)     63.4437         0.001537   
    457. D(Fe  2,Fe  4,Fe  3,Fe  6)    -61.0239         0.001533   
    458. D(Fe 13,Fe  4,Fe  3,Fe  0)     69.1884         0.001533   
    459. D(Fe  7,Fe  4,Fe  3,Fe 14)     39.4398         0.001533   
    460. D(Fe  0,Fe  4,Fe  3,Fe 13)    -69.1884         0.001533   
    461. D(Fe  2,Fe  4,Fe  0,Fe 10)      0.5118         0.001537   
    462. D(Fe  3,Fe  4,Fe  0,Fe  1)    137.5505         0.001537   
    463. D(Fe  7,Fe  4,Fe  3,Fe  6)    -23.6798         0.001533   
    464. D(Fe  1,Fe  4,Fe  3,Fe 13)    -31.0844         0.001533   
    465. D(Fe  2,Fe  4,Fe  0,Fe  9)    -63.0298         0.001537   
    466. D(Fe  3,Fe  4,Fe  2,Fe 13)    -31.9756         0.001531   
    467. D(Fe  1,Fe  4,Fe  0,Fe 10)    -36.8632         0.001537   
    468. D(Fe 13,Fe  4,Fe  2,Fe 12)    -31.6707         0.001531   
    469. D(Fe  7,Fe  4,Fe  0,Fe  1)    100.3069         0.001537   
    470. D(Fe  3,Fe  4,Fe  0,Fe  9)     37.1457         0.001537   
    471. D(Fe  0,Fe  4,Fe  3,Fe 14)    -99.1204         0.001533   
    472. D(Fe  3,Fe  4,Fe  1,Fe 13)     30.9732         0.001535   
    473. D(Fe  3,Fe  4,Fe  1,Fe  2)     99.9888         0.001535   
    474. D(Fe 13,Fe  4,Fe  2,Fe  1)    -69.2821         0.001531   
    475. D(Fe  2,Fe  4,Fe  0,Fe  1)     37.3750         0.001537   
    476. D(Fe  0,Fe  4,Fe  1,Fe  2)    138.0875         0.001535   
    477. D(Fe 13,Fe  4,Fe  0,Fe  3)    -68.5943         0.001537   
    478. D(Fe 13,Fe  4,Fe  3,Fe  9)     32.6785         0.001533   
    479. D(Fe  7,Fe  4,Fe  2,Fe 12)   -101.2979         0.001531   
    480. D(Fe  2,Fe  4,Fe  1,Fe 10)   -100.9812         0.001535   
    481. D(Fe  0,Fe  4,Fe  1,Fe 10)     37.1064         0.001535   
    482. D(Fe  3,Fe  4,Fe  2,Fe  5)     -0.0000         0.001531   
    483. D(Fe  7,Fe  4,Fe  2,Fe  5)    -37.6516         0.001531   
    484. D(Fe  1,Fe  4,Fe  2,Fe 12)     37.6114         0.001531   
    485. D(Fe  7,Fe  4,Fe  0,Fe  3)    -37.2436         0.001537   
    486. D(Fe  7,Fe  4,Fe  1,Fe 10)    -64.5290         0.001535   
    487. D(Fe  1,Fe  4,Fe  3,Fe 14)    -61.0165         0.001533   
    488. D(Fe  1,Fe  4,Fe  0,Fe  9)   -100.4048         0.001537   
    489. D(Fe  1,Fe  4,Fe  0,Fe 13)    -68.9562         0.001537   
    490. D(Fe 13,Fe  4,Fe  0,Fe 10)     32.0930         0.001537   
    491. D(Fe  2,Fe  4,Fe  3,Fe  7)    -37.3441         0.001533   
    492. D(Fe  7,Fe  4,Fe  3,Fe  0)    138.5603         0.001533   
    493. D(Fe  7,Fe  4,Fe  3,Fe 13)     69.3718         0.001533   
    494. D(Fe  0,Fe  4,Fe  3,Fe  6)   -162.2401         0.001533   
    495. D(Fe  1,Fe  4,Fe  2,Fe  7)    138.9093         0.001531   
    496. D(Fe  2,Fe  4,Fe  0,Fe 13)    -31.5812         0.001537   
    497. D(Fe  0,Fe  4,Fe  3,Fe  9)    -36.5099         0.001533   
    498. D(Fe  7,Fe  4,Fe  0,Fe 13)     31.3507         0.001537   
    499. D(Fe  1,Fe  4,Fe  3,Fe  0)     38.1040         0.001533   
    500. D(Fe  2,Fe  4,Fe  0,Fe  3)   -100.1755         0.001537   
    501. D(Fe  0,Fe  4,Fe  1,Fe 12)    100.7430         0.001535   
    502. D(Fe 13,Fe  4,Fe  2,Fe  7)     69.6272         0.001531   
    503. D(Fe  3,Fe  4,Fe  2,Fe  7)     37.6516         0.001531   
    504. D(Fe 14,Fe  5,Fe  2,Fe  4)     -2.0957         0.001533   
    505. D(Fe 13,Fe  5,Fe  2,Fe 12)     69.1886         0.001533   
    506. D(Fe 14,Fe  5,Fe  2,Fe 13)     29.9320         0.001533   
    507. D(Fe 14,Fe  5,Fe  2,Fe  7)    -39.4397         0.001533   
    508. D(Fe 14,Fe  5,Fe  2,Fe 12)     99.1206         0.001533   
    509. D(Fe 14,Fe  5,Fe  2,Fe  1)     61.0164         0.001533   
    510. D(Fe  8,Fe  5,Fe  0,Fe  9)     72.5137         0.001500   
    511. D(Fe 11,Fe  5,Fe  0,Fe  1)    106.8318         0.001500   
    512. D(Fe 12,Fe  5,Fe  2,Fe 13)    -69.1886         0.001533   
    513. D(Fe 12,Fe  5,Fe  2,Fe  4)   -101.2163         0.001533   
    514. D(Fe 11,Fe  5,Fe  2,Fe 12)     36.5099         0.001533   
    515. D(Fe 11,Fe  5,Fe  2,Fe  1)     -1.5942         0.001533   
    516. D(Fe 11,Fe  5,Fe  2,Fe  4)    -64.7063         0.001533   
    517. D(Fe  8,Fe  5,Fe  2,Fe 13)     93.0514         0.001533   
    518. D(Fe  8,Fe  5,Fe  2,Fe 12)    162.2399         0.001533   
    519. D(Fe 11,Fe  5,Fe  0,Fe  4)    178.6336         0.001500   
    520. D(Fe  8,Fe  5,Fe  2,Fe  7)     23.6796         0.001533   
    521. D(Fe 12,Fe  5,Fe  0,Fe  4)    107.4863         0.001500   
    522. D(Fe  7,Fe  5,Fe  2,Fe 12)    138.5603         0.001533   
    523. D(Fe  8,Fe  5,Fe  0,Fe 10)    144.3152         0.001500   
    524. D(Fe  7,Fe  5,Fe  2,Fe  1)    100.4562         0.001533   
    525. D(Fe  7,Fe  5,Fe  0,Fe  3)     37.7897         0.001500   
    526. D(Fe 14,Fe  5,Fe  0,Fe  9)     34.7242         0.001500   
    527. D(Fe  2,Fe  5,Fe  0,Fe 10)   -106.8319         0.001500   
    528. D(Fe 12,Fe  5,Fe  0,Fe  3)   -180.0000         0.001500   
    529. D(Fe 11,Fe  5,Fe  2,Fe 13)    -32.6786         0.001533   
    530. D(Fe 13,Fe  5,Fe  2,Fe  4)    -32.0277         0.001533   
    531. D(Fe 11,Fe  5,Fe  0,Fe  3)   -108.8528         0.001500   
    532. D(Fe 11,Fe  5,Fe  0,Fe 10)     35.4625         0.001500   
    533. D(Fe  8,Fe  5,Fe  0,Fe  3)     -0.0001         0.001500   
    534. D(Fe 12,Fe  5,Fe  2,Fe  1)    -38.1041         0.001533   
    535. D(Fe  2,Fe  5,Fe  0,Fe  1)    -35.4626         0.001500   
    536. D(Fe  8,Fe  5,Fe  0,Fe  4)    -72.5138         0.001500   
    537. D(Fe  7,Fe  5,Fe  2,Fe 13)     69.3718         0.001533   
    538. D(Fe  2,Fe  5,Fe  0,Fe  9)   -178.6334         0.001500   
    539. D(Fe  7,Fe  5,Fe  0,Fe  1)   -106.5257         0.001500   
    540. D(Fe  2,Fe  5,Fe  0,Fe  4)     36.3391         0.001500   
    541. D(Fe 11,Fe  5,Fe  0,Fe  9)    -36.3390         0.001500   
    542. D(Fe 12,Fe  5,Fe  2,Fe  7)   -138.5603         0.001533   
    543. D(Fe  8,Fe  5,Fe  0,Fe  1)   -144.3155         0.001500   
    544. D(Fe  2,Fe  5,Fe  0,Fe  3)    108.8528         0.001500   
    545. D(Fe 13,Fe  5,Fe  2,Fe  7)    -69.3718         0.001533   
    546. D(Fe  8,Fe  5,Fe  2,Fe  1)    124.1358         0.001533   
    547. D(Fe 12,Fe  5,Fe  0,Fe 10)    -35.6847         0.001500   
    548. D(Fe 11,Fe  5,Fe  2,Fe  7)   -102.0504         0.001533   
    549. D(Fe  7,Fe  5,Fe  2,Fe  4)     37.3441         0.001533   
    550. D(Fe 13,Fe  5,Fe  2,Fe  1)     31.0844         0.001533   
    551. D(Fe 12,Fe  5,Fe  0,Fe  1)     35.6846         0.001500   
    552. D(Fe 14,Fe  5,Fe  0,Fe  4)   -110.3032         0.001500   
    553. D(Fe 14,Fe  5,Fe  0,Fe 10)    106.5258         0.001500   
    554. D(Fe  7,Fe  5,Fe  0,Fe  9)    110.3034         0.001500   
    555. D(Fe 12,Fe  5,Fe  0,Fe  9)   -107.4862         0.001500   
    556. D(Fe 14,Fe  5,Fe  0,Fe  1)    177.8951         0.001500   
    557. D(Fe  8,Fe  5,Fe  2,Fe  4)     61.0237         0.001533   
    558. D(Fe  7,Fe  5,Fe  0,Fe 10)   -177.8950         0.001500   
    559. D(Fe  7,Fe  5,Fe  0,Fe  4)    -34.7240         0.001500   
    560. D(Fe 14,Fe  5,Fe  0,Fe  3)    -37.7895         0.001500   
    561. D(Fe  7,Fe  6,Fe  3,Fe 13)    -37.4622         0.001540   
    562. D(Fe 14,Fe  6,Fe  3,Fe 13)     37.4621         0.001540   
    563. D(Fe  8,Fe  6,Fe  3,Fe  9)    -61.2930         0.001540   
    564. D(Fe 14,Fe  6,Fe  3,Fe  7)     74.9243         0.001540   
    565. D(Fe  8,Fe  6,Fe  3,Fe 14)    -37.4620         0.001540   
    566. D(Fe  8,Fe  6,Fe  3,Fe 13)      0.0001         0.001540   
    567. D(Fe 14,Fe  6,Fe  3,Fe  9)    -23.8311         0.001540   
    568. D(Fe  8,Fe  6,Fe  3,Fe  7)     37.4623         0.001540   
    569. D(Fe  8,Fe  6,Fe  3,Fe  4)     61.2936         0.001540   
    570. D(Fe 14,Fe  6,Fe  3,Fe  4)     98.7556         0.001540   
    571. D(Fe  8,Fe  6,Fe  3,Fe  0)      0.0006         0.001540   
    572. D(Fe  7,Fe  6,Fe  3,Fe 14)    -74.9243         0.001540   
    573. D(Fe 14,Fe  6,Fe  3,Fe  0)     37.4626         0.001540   
    574. D(Fe  7,Fe  6,Fe  3,Fe  9)    -98.7553         0.001540   
    575. D(Fe  7,Fe  6,Fe  3,Fe  0)    -37.4617         0.001540   
    576. D(Fe  7,Fe  6,Fe  3,Fe  4)     23.8313         0.001540   
    577. D(Fe  6,Fe  7,Fe  2,Fe 13)    -15.0127         0.001547   
    578. D(Fe  5,Fe  7,Fe  2,Fe 12)    -37.3262         0.001547   
    579. D(Fe  5,Fe  7,Fe  2,Fe 13)    -68.6475         0.001547   
    580. D(Fe  4,Fe  7,Fe  2,Fe 13)     69.1107         0.001547   
    581. D(Fe  5,Fe  7,Fe  2,Fe  4)   -137.7582         0.001547   
    582. D(Fe  3,Fe  7,Fe  2,Fe 12)     62.0449         0.001547   
    583. D(Fe  3,Fe  7,Fe  2,Fe  5)     99.3711         0.001547   
    584. D(Fe  3,Fe  7,Fe  2,Fe  1)     -1.7806         0.001547   
    585. D(Fe  3,Fe  7,Fe  2,Fe 13)     30.7235         0.001547   
    586. D(Fe  4,Fe  7,Fe  2,Fe 12)    100.4321         0.001547   
    587. D(Fe  3,Fe  7,Fe  2,Fe  4)    -38.3872         0.001547   
    588. D(Fe  5,Fe  7,Fe  2,Fe  1)   -101.1517         0.001547   
    589. D(Fe  4,Fe  7,Fe  2,Fe  5)    137.7582         0.001547   
    590. D(Fe  6,Fe  7,Fe  2,Fe  1)    -47.5168         0.001547   
    591. D(Fe  3,Fe  7,Fe  5,Fe 14)     34.5607         0.001540   
    592. D(Fe  4,Fe  7,Fe  5,Fe 11)     60.8759         0.001540   
    593. D(Fe  6,Fe  7,Fe  5,Fe 12)   -129.9791         0.001540   
    594. D(Fe  6,Fe  7,Fe  5,Fe 11)    -67.1369         0.001540   
    595. D(Fe  6,Fe  7,Fe  5,Fe 14)    -29.2063         0.001540   
    596. D(Fe  8,Fe  7,Fe  5,Fe  2)    154.3761         0.001540   
    597. D(Fe  4,Fe  7,Fe  5,Fe  2)    -38.5793         0.001540   
    598. D(Fe  8,Fe  7,Fe  5,Fe 14)    -68.2382         0.001540   
    599. D(Fe 14,Fe  7,Fe  5,Fe  2)   -137.3858         0.001540   
    600. D(Fe 14,Fe  7,Fe  6,Fe  3)     69.7027         0.001559   
    601. D(Fe 14,Fe  7,Fe  5,Fe 13)    -67.8893         0.001540   
    602. D(Fe  8,Fe  7,Fe  6,Fe 14)     67.8763         0.001559   
    603. D(Fe 13,Fe  7,Fe  6,Fe  8)    -99.7572         0.001559   
    604. D(Fe  3,Fe  7,Fe  6,Fe  8)   -137.5790         0.001559   
    605. D(Fe  4,Fe  7,Fe  2,Fe  1)     36.6065         0.001547   
    606. D(Fe  3,Fe  7,Fe  6,Fe 14)    -69.7027         0.001559   
    607. D(Fe  4,Fe  7,Fe  6,Fe  8)   -162.4158         0.001559   
    608. D(Fe  4,Fe  7,Fe  6,Fe 14)    -94.5395         0.001559   
    609. D(Fe  5,Fe  7,Fe  6,Fe  3)     99.2259         0.001559   
    610. D(Fe  2,Fe  7,Fe  6,Fe 14)    -18.5548         0.001559   
    611. D(Fe  2,Fe  7,Fe  6,Fe  3)     51.1479         0.001559   
    612. D(Fe  5,Fe  7,Fe  6,Fe 14)     29.5232         0.001559   
    613. D(Fe 14,Fe  7,Fe  5,Fe 12)   -100.7728         0.001540   
    614. D(Fe  2,Fe  7,Fe  6,Fe  8)    -86.4311         0.001559   
    615. D(Fe 13,Fe  7,Fe  6,Fe 14)    -31.8809         0.001559   
    616. D(Fe 14,Fe  7,Fe  6,Fe  8)    -67.8763         0.001559   
    617. D(Fe 14,Fe  7,Fe  5,Fe  8)     68.2382         0.001540   
    618. D(Fe 13,Fe  7,Fe  5,Fe 12)    -32.8835         0.001540   
    619. D(Fe 13,Fe  7,Fe  5,Fe 11)     29.9587         0.001540   
    620. D(Fe 13,Fe  7,Fe  5,Fe  8)    136.1275         0.001540   
    621. D(Fe 13,Fe  7,Fe  5,Fe  2)    -69.4964         0.001540   
    622. D(Fe  8,Fe  7,Fe  5,Fe 11)   -106.1688         0.001540   
    623. D(Fe  6,Fe  7,Fe  2,Fe  5)     53.6349         0.001547   
    624. D(Fe  6,Fe  7,Fe  2,Fe  4)    -84.1234         0.001547   
    625. D(Fe  6,Fe  7,Fe  5,Fe  8)     39.0319         0.001540   
    626. D(Fe  6,Fe  7,Fe  2,Fe 12)     16.3087         0.001547   
    627. D(Fe  4,Fe  7,Fe  5,Fe 13)     30.9171         0.001540   
    628. D(Fe  6,Fe  7,Fe  5,Fe  2)   -166.5921         0.001540   
    629. D(Fe  4,Fe  7,Fe  5,Fe 14)     98.8065         0.001540   
    630. D(Fe  4,Fe  7,Fe  5,Fe 12)     -1.9663         0.001540   
    631. D(Fe  4,Fe  7,Fe  5,Fe  8)    167.0447         0.001540   
    632. D(Fe  2,Fe  7,Fe  4,Fe 13)    -69.1108         0.001547   
    633. D(Fe  3,Fe  7,Fe  5,Fe 13)    -33.3286         0.001540   
    634. D(Fe  6,Fe  7,Fe  3,Fe  0)    169.0112         0.001540   
    635. D(Fe  8,Fe  7,Fe  2,Fe  5)    -24.7178         0.001547   
    636. D(Fe  8,Fe  7,Fe  2,Fe 12)    -62.0440         0.001547   
    637. D(Fe  2,Fe  7,Fe  4,Fe  3)   -137.7584         0.001547   
    638. D(Fe  2,Fe  7,Fe  5,Fe 13)     69.4964         0.001540   
    639. D(Fe 13,Fe  7,Fe  2,Fe  4)    -69.1107         0.001547   
    640. D(Fe  2,Fe  7,Fe  5,Fe 11)     99.4551         0.001540   
    641. D(Fe  2,Fe  7,Fe  5,Fe  8)   -154.3761         0.001540   
    642. D(Fe 14,Fe  7,Fe  4,Fe  2)    100.4919         0.001547   
    643. D(Fe 14,Fe  7,Fe  4,Fe  1)     63.8853         0.001547   
    644. D(Fe 13,Fe  7,Fe  2,Fe  5)     68.6475         0.001547   
    645. D(Fe 14,Fe  7,Fe  4,Fe  0)      0.0599         0.001547   
    646. D(Fe 14,Fe  7,Fe  2,Fe 13)    -31.3808         0.001547   
    647. D(Fe  5,Fe  7,Fe  3,Fe  0)     66.2121         0.001540   
    648. D(Fe  2,Fe  7,Fe  3,Fe  0)      1.9662         0.001540   
    649. D(Fe  8,Fe  7,Fe  4,Fe 13)     15.0130         0.001547   
    650. D(Fe 14,Fe  7,Fe  3,Fe  9)     37.9306         0.001540   
    651. D(Fe  5,Fe  7,Fe  6,Fe  8)    -38.3531         0.001559   
    652. D(Fe  8,Fe  7,Fe  4,Fe  2)     84.1238         0.001547   
    653. D(Fe  8,Fe  7,Fe  4,Fe  0)    -16.3082         0.001547   
    654. D(Fe  4,Fe  7,Fe  3,Fe  6)    154.3758         0.001540   
    655. D(Fe  6,Fe  7,Fe  4,Fe  1)    125.8699         0.001547   
    656. D(Fe  6,Fe  7,Fe  4,Fe  0)     62.0444         0.001547   
    657. D(Fe  5,Fe  7,Fe  4,Fe 13)    -30.7235         0.001547   
    658. D(Fe  3,Fe  7,Fe  5,Fe  2)   -102.8251         0.001540   
    659. D(Fe  4,Fe  7,Fe  3,Fe 14)   -137.3858         0.001540   
    660. D(Fe  2,Fe  7,Fe  4,Fe  1)    -36.6066         0.001547   
    661. D(Fe  6,Fe  7,Fe  4,Fe 13)     93.3656         0.001547   
    662. D(Fe  5,Fe  7,Fe  3,Fe  4)    102.8250         0.001540   
    663. D(Fe  5,Fe  7,Fe  4,Fe  2)     38.3873         0.001547   
    664. D(Fe  2,Fe  7,Fe  3,Fe  9)    -60.8760         0.001540   
    665. D(Fe  8,Fe  7,Fe  4,Fe  1)     47.5172         0.001547   
    666. D(Fe  6,Fe  7,Fe  4,Fe  2)    162.4764         0.001547   
    667. D(Fe  3,Fe  7,Fe  4,Fe 13)     68.6476         0.001547   
    668. D(Fe  3,Fe  7,Fe  4,Fe  2)    137.7584         0.001547   
    669. D(Fe  5,Fe  7,Fe  3,Fe  6)   -102.7991         0.001540   
    670. D(Fe  5,Fe  7,Fe  3,Fe 13)     33.3287         0.001540   
    671. D(Fe 13,Fe  7,Fe  4,Fe  2)     69.1108         0.001547   
    672. D(Fe  3,Fe  7,Fe  4,Fe  1)    101.1518         0.001547   
    673. D(Fe  5,Fe  7,Fe  4,Fe  0)    -62.0447         0.001547   
    674. D(Fe  3,Fe  7,Fe  4,Fe  0)     37.3264         0.001547   
    675. D(Fe  4,Fe  7,Fe  3,Fe 13)    -69.4964         0.001540   
    676. D(Fe  2,Fe  7,Fe  3,Fe 13)    -30.9172         0.001540   
    677. D(Fe 13,Fe  7,Fe  2,Fe 12)     31.3214         0.001547   
    678. D(Fe  2,Fe  7,Fe  4,Fe  0)   -100.4320         0.001547   
    679. D(Fe  2,Fe  7,Fe  3,Fe 14)    -98.8067         0.001540   
    680. D(Fe  6,Fe  7,Fe  3,Fe 14)     68.2383         0.001540   
    681. D(Fe 14,Fe  7,Fe  3,Fe  4)    137.3858         0.001540   
    682. D(Fe  8,Fe  7,Fe  3,Fe  6)    -39.0323         0.001540   
    683. D(Fe 13,Fe  7,Fe  3,Fe 14)    -67.8895         0.001540   
    684. D(Fe  8,Fe  7,Fe  2,Fe 13)    -93.3654         0.001547   
    685. D(Fe  8,Fe  7,Fe  3,Fe 13)     97.0955         0.001540   
    686. D(Fe 13,Fe  7,Fe  3,Fe  4)     69.4964         0.001540   
    687. D(Fe 14,Fe  7,Fe  2,Fe  1)    -63.8850         0.001547   
    688. D(Fe  6,Fe  7,Fe  3,Fe  9)    106.1690         0.001540   
    689. D(Fe  6,Fe  7,Fe  3,Fe  4)   -154.3758         0.001540   
    690. D(Fe  5,Fe  7,Fe  3,Fe  9)      3.3698         0.001540   
    691. D(Fe 13,Fe  7,Fe  4,Fe  1)     32.5042         0.001547   
    692. D(Fe 14,Fe  7,Fe  2,Fe  5)     37.2667         0.001547   
    693. D(Fe 13,Fe  7,Fe  4,Fe  3)    -68.6476         0.001547   
    694. D(Fe  5,Fe  7,Fe  4,Fe  1)      1.7808         0.001547   
    695. D(Fe  5,Fe  7,Fe  3,Fe 14)    -34.5608         0.001540   
    696. D(Fe  4,Fe  7,Fe  3,Fe  9)    -99.4552         0.001540   
    697. D(Fe  8,Fe  7,Fe  4,Fe  3)    -53.6346         0.001547   
    698. D(Fe 13,Fe  7,Fe  4,Fe  0)    -31.3212         0.001547   
    699. D(Fe  4,Fe  7,Fe  3,Fe  0)    -36.6130         0.001540   
    700. D(Fe  6,Fe  7,Fe  5,Fe 13)    -97.0956         0.001540   
    701. D(Fe  2,Fe  7,Fe  3,Fe  4)     38.5791         0.001540   
    702. D(Fe  2,Fe  7,Fe  5,Fe 12)     36.6130         0.001540   
    703. D(Fe  6,Fe  7,Fe  4,Fe  3)     24.7180         0.001547   
    704. D(Fe  8,Fe  7,Fe  5,Fe 13)   -136.1275         0.001540   
    705. D(Fe  8,Fe  7,Fe  5,Fe 12)   -169.0110         0.001540   
    706. D(Fe  5,Fe  7,Fe  4,Fe  3)    -99.3711         0.001547   
    707. D(Fe  2,Fe  7,Fe  3,Fe  6)   -167.0450         0.001540   
    708. D(Fe  6,Fe  7,Fe  3,Fe 13)    136.1278         0.001540   
    709. D(Fe 13,Fe  7,Fe  3,Fe  6)   -136.1278         0.001540   
    710. D(Fe  8,Fe  7,Fe  3,Fe 14)     29.2061         0.001540   
    711. D(Fe 13,Fe  7,Fe  5,Fe 14)     67.8893         0.001540   
    712. D(Fe 14,Fe  7,Fe  5,Fe 11)    -37.9306         0.001540   
    713. D(Fe 14,Fe  7,Fe  2,Fe 12)     -0.0595         0.001547   
    714. D(Fe  8,Fe  7,Fe  3,Fe  0)    129.9789         0.001540   
    715. D(Fe 13,Fe  7,Fe  6,Fe  3)     37.8218         0.001559   
    716. D(Fe  3,Fe  7,Fe  5,Fe 12)    -66.2121         0.001540   
    717. D(Fe  8,Fe  7,Fe  6,Fe  3)    137.5790         0.001559   
    718. D(Fe 14,Fe  7,Fe  2,Fe  4)   -100.4915         0.001547   
    719. D(Fe  8,Fe  7,Fe  3,Fe  9)     67.1367         0.001540   
    720. D(Fe  4,Fe  7,Fe  6,Fe  3)    -24.8368         0.001559   
    721. D(Fe 14,Fe  7,Fe  4,Fe  3)    -37.2665         0.001547   
    722. D(Fe  3,Fe  7,Fe  5,Fe 11)     -3.3699         0.001540   
    723. D(Fe 13,Fe  7,Fe  3,Fe  0)     32.8834         0.001540   
    724. D(Fe 14,Fe  7,Fe  3,Fe  6)    -68.2383         0.001540   
    725. D(Fe  8,Fe  7,Fe  3,Fe  4)    166.5919         0.001540   
    726. D(Fe 14,Fe  7,Fe  4,Fe 13)     31.3811         0.001547   
    727. D(Fe 14,Fe  7,Fe  3,Fe  0)    100.7729         0.001540   
    728. D(Fe 14,Fe  7,Fe  3,Fe 13)     67.8895         0.001540   
    729. D(Fe  3,Fe  7,Fe  5,Fe  8)    102.7989         0.001540   
    730. D(Fe  2,Fe  7,Fe  5,Fe 14)    137.3858         0.001540   
    731. D(Fe  8,Fe  7,Fe  2,Fe  4)   -162.4761         0.001547   
    732. D(Fe 13,Fe  7,Fe  2,Fe  1)    -32.5042         0.001547   
    733. D(Fe  8,Fe  7,Fe  2,Fe  1)   -125.8695         0.001547   
    734. D(Fe 13,Fe  7,Fe  3,Fe  9)    -29.9588         0.001540   
    735. D(Fe 14,Fe  8,Fe  7,Fe  2)     94.5397         0.001559   
    736. D(Fe 14,Fe  8,Fe  7,Fe 13)     31.8811         0.001559   
    737. D(Fe 14,Fe  8,Fe  7,Fe  6)    -67.8764         0.001559   
    738. D(Fe 14,Fe  8,Fe  7,Fe  5)     69.7031         0.001559   
    739. D(Fe 14,Fe  8,Fe  7,Fe  4)     18.5548         0.001559   
    740. D(Fe 14,Fe  8,Fe  7,Fe  3)    -29.5229         0.001559   
    741. D(Fe  6,Fe  8,Fe  7,Fe 14)     67.8764         0.001559   
    742. D(Fe  6,Fe  8,Fe  7,Fe 13)     99.7575         0.001559   
    743. D(Fe  6,Fe  8,Fe  7,Fe  5)    137.5795         0.001559   
    744. D(Fe  6,Fe  8,Fe  7,Fe  4)     86.4312         0.001559   
    745. D(Fe  6,Fe  8,Fe  7,Fe  2)    162.4161         0.001559   
    746. D(Fe  6,Fe  8,Fe  7,Fe  3)     38.3535         0.001559   
    747. D(Fe  5,Fe  8,Fe  7,Fe 13)    -37.8220         0.001559   
    748. D(Fe  5,Fe  8,Fe  7,Fe  4)    -51.1483         0.001559   
    749. D(Fe  5,Fe  8,Fe  7,Fe 14)    -69.7031         0.001559   
    750. D(Fe  5,Fe  8,Fe  7,Fe  3)    -99.2260         0.001559   
    751. D(Fe  7,Fe  8,Fe  6,Fe 14)    -76.7443         0.001528   
    752. D(Fe  7,Fe  8,Fe  6,Fe  3)    -38.3723         0.001528   
    753. D(Fe 14,Fe  8,Fe  5,Fe 11)     23.8314         0.001540   
    754. D(Fe 14,Fe  8,Fe  5,Fe 12)    -37.4616         0.001540   
    755. D(Fe  7,Fe  8,Fe  5,Fe 14)     74.9241         0.001540   
    756. D(Fe  7,Fe  8,Fe  5,Fe 11)     98.7554         0.001540   
    757. D(Fe  7,Fe  8,Fe  5,Fe 12)     37.4624         0.001540   
    758. D(Fe  6,Fe  8,Fe  5,Fe 14)     37.4622         0.001540   
    759. D(Fe  6,Fe  8,Fe  5,Fe 13)      0.0004         0.001540   
    760. D(Fe  6,Fe  8,Fe  5,Fe 12)      0.0005         0.001540   
    761. D(Fe  6,Fe  8,Fe  5,Fe  2)    -61.2931         0.001540   
    762. D(Fe  6,Fe  8,Fe  5,Fe  7)    -37.4619         0.001540   
    763. D(Fe  6,Fe  8,Fe  5,Fe 11)     61.2936         0.001540   
    764. D(Fe 14,Fe  8,Fe  5,Fe  2)    -98.7552         0.001540   
    765. D(Fe  7,Fe  8,Fe  5,Fe 13)     37.4623         0.001540   
    766. D(Fe 14,Fe  8,Fe  5,Fe 13)    -37.4618         0.001540   
    767. D(Fe 14,Fe  8,Fe  5,Fe  7)    -74.9241         0.001540   
    768. D(Fe  5,Fe  8,Fe  6,Fe 14)    -38.3723         0.001528   
    769. D(Fe  5,Fe  8,Fe  6,Fe  3)     -0.0004         0.001528   
    770. D(Fe  5,Fe  8,Fe  6,Fe  7)     38.3720         0.001528   
    771. D(Fe  5,Fe  8,Fe  7,Fe  2)     24.8366         0.001559   
    772. D(Fe 14,Fe  8,Fe  6,Fe  3)     38.3720         0.001528   
    773. D(Fe 14,Fe  8,Fe  6,Fe  7)     76.7443         0.001528   
    774. D(Fe  7,Fe  8,Fe  5,Fe  2)    -23.8312         0.001540   
    775. D(Fe  5,Fe  8,Fe  7,Fe  6)   -137.5795         0.001559   
    776. D(Fe 14,Fe  9,Fe  3,Fe  6)     23.6796         0.001533   
    777. D(Fe 13,Fe  9,Fe  3,Fe  7)     29.9320         0.001533   
    778. D(Fe 11,Fe  9,Fe  3,Fe 14)     37.3443         0.001533   
    779. D(Fe  3,Fe  9,Fe  0,Fe  4)    -37.1457         0.001537   
    780. D(Fe 11,Fe  9,Fe  3,Fe  6)     61.0239         0.001533   
    781. D(Fe 11,Fe  9,Fe  3,Fe  4)    -64.7062         0.001533   
    782. D(Fe 10,Fe  9,Fe  0,Fe  4)    100.4050         0.001537   
    783. D(Fe 10,Fe  9,Fe  3,Fe  7)     61.0166         0.001533   
    784. D(Fe 11,Fe  9,Fe  0,Fe  4)     63.0298         0.001537   
    785. D(Fe  0,Fe  9,Fe  3,Fe 14)    138.5604         0.001533   
    786. D(Fe 10,Fe  9,Fe  3,Fe 13)     31.0846         0.001533   
    787. D(Fe  0,Fe  9,Fe  3,Fe  4)     36.5099         0.001533   
    788. D(Fe 14,Fe  9,Fe  2,Fe 12)   -106.6668         0.001500   
    789. D(Fe 14,Fe  9,Fe  2,Fe  5)    -34.2124         0.001500   
    790. D(Fe 14,Fe  9,Fe  2,Fe  4)    108.8755         0.001500   
    791. D(Fe 14,Fe  9,Fe  0,Fe 10)   -100.3073         0.001537   
    792. D(Fe 11,Fe  9,Fe  2,Fe  5)     36.9121         0.001500   
    793. D(Fe  0,Fe  9,Fe  2,Fe  1)     36.3618         0.001500   
    794. D(Fe  0,Fe  9,Fe  2,Fe  5)   -178.6304         0.001500   
    795. D(Fe 10,Fe  9,Fe  2,Fe  7)   -179.2199         0.001500   
    796. D(Fe 10,Fe  9,Fe  2,Fe  5)    108.8163         0.001500   
    797. D(Fe  3,Fe  9,Fe  2,Fe 12)   -178.6303         0.001500   
    798. D(Fe  3,Fe  9,Fe  2,Fe  5)   -106.1759         0.001500   
    799. D(Fe  3,Fe  9,Fe  2,Fe  4)     36.9119         0.001500   
    800. D(Fe  3,Fe  9,Fe  2,Fe  1)    108.8162         0.001500   
    801. D(Fe  3,Fe  9,Fe  2,Fe  7)    -34.2122         0.001500   
    802. D(Fe  0,Fe  9,Fe  2,Fe 12)    108.9152         0.001500   
    803. D(Fe  0,Fe  9,Fe  2,Fe  7)   -106.6666         0.001500   
    804. D(Fe 10,Fe  9,Fe  2,Fe  4)   -108.0958         0.001500   
    805. D(Fe 10,Fe  9,Fe  2,Fe 12)     36.3619         0.001500   
    806. D(Fe  0,Fe  9,Fe  2,Fe  4)    -35.5425         0.001500   
    807. D(Fe 10,Fe  9,Fe  2,Fe  1)    -36.1915         0.001500   
    808. D(Fe 11,Fe  9,Fe  2,Fe  4)   -180.0000         0.001500   
    809. D(Fe 14,Fe  9,Fe  0,Fe 13)    -31.3511         0.001537   
    810. D(Fe 11,Fe  9,Fe  2,Fe 12)    -35.5423         0.001500   
    811. D(Fe 14,Fe  9,Fe  0,Fe  4)      0.0977         0.001537   
    812. D(Fe 11,Fe  9,Fe  2,Fe  7)    108.8759         0.001500   
    813. D(Fe 11,Fe  9,Fe  2,Fe  1)   -108.0957         0.001500   
    814. D(Fe 14,Fe  9,Fe  0,Fe  3)     37.2434         0.001537   
    815. D(Fe 14,Fe  9,Fe  0,Fe  1)    -63.4440         0.001537   
    816. D(Fe 13,Fe  9,Fe  0,Fe 10)    -68.9563         0.001537   
    817. D(Fe 13,Fe  9,Fe  0,Fe  4)     31.4487         0.001537   
    818. D(Fe 14,Fe  9,Fe  2,Fe  7)     37.7513         0.001500   
    819. D(Fe 14,Fe  9,Fe  2,Fe  1)   -179.2203         0.001500   
    820. D(Fe  0,Fe  9,Fe  3,Fe  7)     99.1205         0.001533   
    821. D(Fe 13,Fe  9,Fe  0,Fe  3)     68.5944         0.001537   
    822. D(Fe  0,Fe  9,Fe  3,Fe  6)    162.2400         0.001533   
    823. D(Fe 13,Fe  9,Fe  0,Fe  1)    -32.0930         0.001537   
    824. D(Fe 11,Fe  9,Fe  0,Fe 13)     31.5810         0.001537   
    825. D(Fe 11,Fe  9,Fe  0,Fe 10)    -37.3752         0.001537   
    826. D(Fe 10,Fe  9,Fe  3,Fe  4)     -1.5940         0.001533   
    827. D(Fe 11,Fe  9,Fe  0,Fe  3)    100.1755         0.001537   
    828. D(Fe 10,Fe  9,Fe  3,Fe  6)    124.1361         0.001533   
    829. D(Fe 11,Fe  9,Fe  0,Fe  1)     -0.5119         0.001537   
    830. D(Fe 10,Fe  9,Fe  0,Fe 13)     68.9563         0.001537   
    831. D(Fe 10,Fe  9,Fe  3,Fe  0)    -38.1039         0.001533   
    832. D(Fe 11,Fe  9,Fe  3,Fe  0)   -101.2161         0.001533   
    833. D(Fe 10,Fe  9,Fe  0,Fe  3)    137.5507         0.001537   
    834. D(Fe 10,Fe  9,Fe  0,Fe  1)     36.8633         0.001537   
    835. D(Fe  3,Fe  9,Fe  0,Fe 13)    -68.5944         0.001537   
    836. D(Fe 10,Fe  9,Fe  3,Fe 14)    100.4565         0.001533   
    837. D(Fe  3,Fe  9,Fe  0,Fe 10)   -137.5507         0.001537   
    838. D(Fe 13,Fe  9,Fe  3,Fe  0)    -69.1885         0.001533   
    839. D(Fe 11,Fe  9,Fe  3,Fe 13)    -32.0276         0.001533   
    840. D(Fe 13,Fe  9,Fe  3,Fe  6)     93.0515         0.001533   
    841. D(Fe  3,Fe  9,Fe  0,Fe  1)   -100.6874         0.001537   
    842. D(Fe 13,Fe  9,Fe  3,Fe  4)    -32.6786         0.001533   
    843. D(Fe 13,Fe  9,Fe  3,Fe 14)     69.3719         0.001533   
    844. D(Fe 14,Fe  9,Fe  3,Fe  0)   -138.5604         0.001533   
    845. D(Fe 11,Fe  9,Fe  3,Fe  7)     -2.0956         0.001533   
    846. D(Fe 14,Fe  9,Fe  3,Fe 13)    -69.3719         0.001533   
    847. D(Fe 14,Fe  9,Fe  3,Fe  7)    -39.4399         0.001533   
    848. D(Fe 14,Fe  9,Fe  3,Fe  4)   -102.0505         0.001533   
    849. D(Fe  0,Fe  9,Fe  3,Fe 13)     69.1885         0.001533   
    850. D(Fe  1,Fe 10,Fe  0,Fe  3)    100.6346         0.001533   
    851. D(Fe 11,Fe 10,Fe  0,Fe 13)    -31.7526         0.001533   
    852. D(Fe 12,Fe 10,Fe  0,Fe  4)     -0.8285         0.001533   
    853. D(Fe  0,Fe 10,Fe  1,Fe 12)   -137.7574         0.001536   
    854. D(Fe  9,Fe 10,Fe  1,Fe  4)      0.0001         0.001536   
    855. D(Fe 11,Fe 10,Fe  1,Fe  0)    100.8507         0.001536   
    856. D(Fe 13,Fe 10,Fe  1,Fe  0)     68.8787         0.001536   
    857. D(Fe  0,Fe 10,Fe  7,Fe  2)    109.3537         0.001500   
    858. D(Fe  1,Fe 10,Fe  7,Fe  5)    109.4728         0.001500   
    859. D(Fe  9,Fe 10,Fe  7,Fe 14)    -35.9446         0.001500   
    860. D(Fe 11,Fe 10,Fe  7,Fe  8)      3.5767         0.001500   
    861. D(Fe 12,Fe 10,Fe  7,Fe  2)    -35.9084         0.001500   
    862. D(Fe 13,Fe 10,Fe  9,Fe  3)    -30.9733         0.001535   
    863. D(Fe 13,Fe 10,Fe  9,Fe  0)    -69.0718         0.001535   
    864. D(Fe 12,Fe 10,Fe  9,Fe 14)      0.8924         0.001535   
    865. D(Fe 12,Fe 10,Fe  9,Fe  3)    -62.6442         0.001535   
    866. D(Fe 11,Fe 10,Fe  9,Fe 14)    -36.4522         0.001535   
    867. D(Fe 11,Fe 10,Fe  9,Fe  3)    -99.9888         0.001535   
    868. D(Fe  1,Fe 10,Fe  9,Fe 11)    100.9810         0.001535   
    869. D(Fe  1,Fe 10,Fe  9,Fe 14)     64.5288         0.001535   
    870. D(Fe  0,Fe 10,Fe  9,Fe 14)    101.6351         0.001535   
    871. D(Fe  0,Fe 10,Fe  9,Fe 13)     69.0718         0.001535   
    872. D(Fe  1,Fe 10,Fe  9,Fe 13)     31.9655         0.001535   
    873. D(Fe 11,Fe 10,Fe  9,Fe 13)    -69.0155         0.001535   
    874. D(Fe 12,Fe 10,Fe  7,Fe  8)     75.0008         0.001500   
    875. D(Fe 12,Fe 10,Fe  9,Fe  0)   -100.7427         0.001535   
    876. D(Fe 12,Fe 10,Fe  9,Fe 13)    -31.6709         0.001535   
    877. D(Fe 12,Fe 10,Fe  7,Fe  4)   -109.3539         0.001500   
    878. D(Fe 12,Fe 10,Fe  7,Fe  3)    177.8962         0.001500   
    879. D(Fe 12,Fe 10,Fe  9,Fe 11)     37.3446         0.001535   
    880. D(Fe 11,Fe 10,Fe  7,Fe 14)     35.9450         0.001500   
    881. D(Fe 13,Fe 10,Fe  9,Fe 11)     69.0155         0.001535   
    882. D(Fe 11,Fe 10,Fe  7,Fe  6)     68.3130         0.001500   
    883. D(Fe 11,Fe 10,Fe  7,Fe  5)    -34.5825         0.001500   
    884. D(Fe 11,Fe 10,Fe  7,Fe  4)    179.2220         0.001500   
    885. D(Fe 11,Fe 10,Fe  7,Fe  3)    106.4721         0.001500   
    886. D(Fe 11,Fe 10,Fe  7,Fe  2)   -107.3325         0.001500   
    887. D(Fe 11,Fe 10,Fe  9,Fe  0)   -138.0872         0.001535   
    888. D(Fe  9,Fe 10,Fe  7,Fe  8)    -68.3129         0.001500   
    889. D(Fe  9,Fe 10,Fe  7,Fe  6)     -3.5766         0.001500   
    890. D(Fe  9,Fe 10,Fe  7,Fe  5)   -106.4721         0.001500   
    891. D(Fe  9,Fe 10,Fe  7,Fe  3)     34.5826         0.001500   
    892. D(Fe  9,Fe 10,Fe  7,Fe  2)   -179.2221         0.001500   
    893. D(Fe  1,Fe 10,Fe  7,Fe 14)   -179.9997         0.001500   
    894. D(Fe  1,Fe 10,Fe  7,Fe  6)   -147.6317         0.001500   
    895. D(Fe  1,Fe 10,Fe  7,Fe  4)    -36.7227         0.001500   
    896. D(Fe  1,Fe 10,Fe  7,Fe  3)   -109.4726         0.001500   
    897. D(Fe  1,Fe 10,Fe  7,Fe  2)     36.7228         0.001500   
    898. D(Fe  0,Fe 10,Fe  7,Fe 14)   -107.3688         0.001500   
    899. D(Fe  0,Fe 10,Fe  7,Fe  8)   -139.7371         0.001500   
    900. D(Fe  0,Fe 10,Fe  7,Fe  6)    -75.0008         0.001500   
    901. D(Fe  0,Fe 10,Fe  7,Fe  5)   -177.8963         0.001500   
    902. D(Fe  0,Fe 10,Fe  7,Fe  4)     35.9082         0.001500   
    903. D(Fe  0,Fe 10,Fe  7,Fe  3)    -36.8417         0.001500   
    904. D(Fe 13,Fe 10,Fe  1,Fe 12)    -68.8787         0.001536   
    905. D(Fe  1,Fe 10,Fe  7,Fe  8)    147.6320         0.001500   
    906. D(Fe 13,Fe 10,Fe  1,Fe  4)     31.9720         0.001536   
    907. D(Fe 13,Fe 10,Fe  1,Fe  2)    -31.9723         0.001536   
    908. D(Fe 12,Fe 10,Fe  1,Fe 13)     68.8787         0.001536   
    909. D(Fe  9,Fe 10,Fe  7,Fe  4)    107.3324         0.001500   
    910. D(Fe 12,Fe 10,Fe  1,Fe  4)    100.8508         0.001536   
    911. D(Fe 12,Fe 10,Fe  1,Fe  2)     36.9064         0.001536   
    912. D(Fe 12,Fe 10,Fe  1,Fe  0)    137.7574         0.001536   
    913. D(Fe 11,Fe 10,Fe  1,Fe 13)     31.9720         0.001536   
    914. D(Fe 11,Fe 10,Fe  1,Fe 12)    -36.9067         0.001536   
    915. D(Fe 11,Fe 10,Fe  1,Fe  4)     63.9441         0.001536   
    916. D(Fe 11,Fe 10,Fe  1,Fe  2)     -0.0003         0.001536   
    917. D(Fe  9,Fe 10,Fe  1,Fe 13)    -31.9720         0.001536   
    918. D(Fe  9,Fe 10,Fe  1,Fe 12)   -100.8507         0.001536   
    919. D(Fe  9,Fe 10,Fe  1,Fe  2)    -63.9443         0.001536   
    920. D(Fe  9,Fe 10,Fe  1,Fe  0)     36.9067         0.001536   
    921. D(Fe 13,Fe 10,Fe  9,Fe 14)     32.5633         0.001535   
    922. D(Fe  0,Fe 10,Fe  1,Fe 13)    -68.8787         0.001536   
    923. D(Fe  0,Fe 10,Fe  1,Fe  4)    -36.9066         0.001536   
    924. D(Fe 12,Fe 10,Fe  7,Fe  5)     36.8416         0.001500   
    925. D(Fe 12,Fe 10,Fe  7,Fe  6)    139.7371         0.001500   
    926. D(Fe  0,Fe 10,Fe  1,Fe  2)   -100.8510         0.001536   
    927. D(Fe 12,Fe 10,Fe  7,Fe 14)    107.3691         0.001500   
    928. D(Fe  0,Fe 10,Fe  9,Fe  3)     38.0985         0.001535   
    929. D(Fe  0,Fe 10,Fe  9,Fe 11)    138.0872         0.001535   
    930. D(Fe 13,Fe 10,Fe  0,Fe  9)     69.4213         0.001533   
    931. D(Fe 13,Fe 10,Fe  0,Fe  4)    -32.2042         0.001533   
    932. D(Fe  1,Fe 10,Fe  9,Fe  0)    -37.1063         0.001535   
    933. D(Fe  1,Fe 10,Fe  9,Fe  3)      0.9922         0.001535   
    934. D(Fe 13,Fe 10,Fe  0,Fe  3)     31.4372         0.001533   
    935. D(Fe 13,Fe 10,Fe  0,Fe  1)    -69.1974         0.001533   
    936. D(Fe 12,Fe 10,Fe  0,Fe 13)     31.3757         0.001533   
    937. D(Fe 12,Fe 10,Fe  0,Fe  9)    100.7970         0.001533   
    938. D(Fe 12,Fe 10,Fe  0,Fe  3)     62.8129         0.001533   
    939. D(Fe 12,Fe 10,Fe  0,Fe  1)    -37.8217         0.001533   
    940. D(Fe 11,Fe 10,Fe  0,Fe  9)     37.6687         0.001533   
    941. D(Fe 11,Fe 10,Fe  0,Fe  4)    -63.9567         0.001533   
    942. D(Fe 11,Fe 10,Fe  0,Fe  3)     -0.3153         0.001533   
    943. D(Fe 11,Fe 10,Fe  0,Fe  1)   -100.9499         0.001533   
    944. D(Fe  9,Fe 10,Fe  0,Fe 13)    -69.4213         0.001533   
    945. D(Fe  9,Fe 10,Fe  0,Fe  4)   -101.6255         0.001533   
    946. D(Fe  9,Fe 10,Fe  0,Fe  3)    -37.9840         0.001533   
    947. D(Fe  9,Fe 10,Fe  0,Fe  1)   -138.6186         0.001533   
    948. D(Fe  1,Fe 10,Fe  0,Fe 13)     69.1974         0.001533   
    949. D(Fe  1,Fe 10,Fe  0,Fe  9)    138.6186         0.001533   
    950. D(Fe  1,Fe 10,Fe  0,Fe  4)     36.9932         0.001533   
    951. D(Fe 14,Fe 11,Fe 10,Fe 13)    -32.5634         0.001535   
    952. D(Fe 14,Fe 11,Fe 10,Fe 12)   -101.6353         0.001535   
    953. D(Fe 14,Fe 11,Fe 10,Fe  9)     36.4519         0.001535   
    954. D(Fe 14,Fe 11,Fe 10,Fe  1)    -64.5289         0.001535   
    955. D(Fe 13,Fe 11,Fe 10,Fe 12)    -69.0719         0.001535   
    956. D(Fe 13,Fe 11,Fe 10,Fe  9)     69.0153         0.001535   
    957. D(Fe 13,Fe 11,Fe 10,Fe  1)    -31.9655         0.001535   
    958. D(Fe 12,Fe 11,Fe 10,Fe 13)     69.0719         0.001535   
    959. D(Fe 12,Fe 11,Fe 10,Fe  9)    138.0872         0.001535   
    960. D(Fe 12,Fe 11,Fe 10,Fe  1)     37.1064         0.001535   
    961. D(Fe  9,Fe 11,Fe 10,Fe 13)    -69.0153         0.001535   
    962. D(Fe  9,Fe 11,Fe 10,Fe  1)   -100.9808         0.001535   
    963. D(Fe  5,Fe 11,Fe 10,Fe 12)    -38.0985         0.001535   
    964. D(Fe  5,Fe 11,Fe 10,Fe  9)     99.9887         0.001535   
    965. D(Fe 14,Fe 11,Fe  9,Fe 10)   -138.9094         0.001531   
    966. D(Fe 13,Fe 11,Fe  9,Fe 10)    -69.2823         0.001531   
    967. D(Fe 12,Fe 11,Fe  9,Fe 13)     31.6708         0.001531   
    968. D(Fe 12,Fe 11,Fe  9,Fe  0)     -0.0001         0.001531   
    969. D(Fe 10,Fe 11,Fe  9,Fe 14)    138.9094         0.001531   
    970. D(Fe  5,Fe 11,Fe  9,Fe 14)     37.6515         0.001531   
    971. D(Fe  5,Fe 11,Fe  9,Fe  0)    -63.6466         0.001531   
    972. D(Fe 14,Fe 11,Fe  5,Fe  7)     39.4397         0.001533   
    973. D(Fe 13,Fe 11,Fe  5,Fe 12)     69.1887         0.001533   
    974. D(Fe 13,Fe 11,Fe  5,Fe  8)    -93.0514         0.001533   
    975. D(Fe 12,Fe 11,Fe  5,Fe 13)    -69.1887         0.001533   
    976. D(Fe 10,Fe 11,Fe  5,Fe 14)   -100.4563         0.001533   
    977. D(Fe 10,Fe 11,Fe  5,Fe  7)    -61.0166         0.001533   
[...]
  152     dE    -1.216710e-06     2.561017e-03    -2.5081e-06      0.004 (TRAH MIcro)
  152     dE    -1.339324e-06     2.321147e-03    -2.7093e-06      0.005 (TRAH MIcro)
WARNING: 4 diagonal Hessian elements are negative!
  153     -18956.296461668633     2.320985e-03                21094403.218 (TRAH MAcro)   No
WARNING : negative HOMO - LUMO gap : -0.002645
  153     dE    -6.298752e-08     7.943886e-03    -1.1287e-03      0.000 (TRAH MIcro)
  153     dE    -1.519328e-07     6.399629e-03    -1.1860e-06      0.001 (TRAH MIcro)
  153     dE    -3.483070e-07     3.881128e-03    -9.7477e-07      0.002 (TRAH MIcro)
  153     dE    -4.919367e-07     2.582619e-03    -1.0916e-06      0.003 (TRAH MIcro)
  153     dE    -5.522085e-07     2.118542e-03    -1.1383e-06      0.003 (TRAH MIcro)
  153     dE    -5.996789e-07     1.978620e-03    -1.2736e-06      0.003 (TRAH MIcro)
  153     dE    -6.390200e-07     1.960620e-03    -1.3571e-06      0.003 (TRAH MIcro)
  153     dE    -8.303593e-07     2.055981e-03    -1.7635e-06      0.003 (TRAH MIcro)
  153     dE    -9.531471e-07     2.055899e-03    -2.0846e-06      0.003 (TRAH MIcro)
  153     dE    -9.839102e-07     2.337837e-03    -2.0742e-06      0.003 (TRAH MIcro)
  153     dE    -1.052288e-06     2.642329e-03    -2.3014e-06      0.003 (TRAH MIcro)
  153     dE    -1.262211e-06     2.471277e-03    -2.5630e-06      0.004 (TRAH MIcro)
  153     dE    -1.342422e-06     2.515207e-03    -2.7647e-06      0.004 (TRAH MIcro)
  153     dE    -1.393184e-06     2.718591e-03    -2.8719e-06      0.004 (TRAH MIcro)
WARNING: 4 diagonal Hessian elements are negative!
  154     -18956.296463062306     2.717139e-03                25313283.862 (TRAH MAcro)   No
WARNING : negative HOMO - LUMO gap : -0.002645
  154     dE    -1.126739e-08     3.844544e-03    -2.2533e-02      0.000 (TRAH MIcro)
  154     dE    -6.326126e-08     2.840050e-03    -3.4904e-05      0.000 (TRAH MIcro)
  154     dE    -1.638552e-07     2.628493e-03    -1.9886e-06      0.001 (TRAH MIcro)
  154     dE    -3.643721e-07     1.890259e-03    -9.1731e-07      0.002 (TRAH MIcro)
  154     dE    -4.333078e-07     1.280583e-03    -8.9323e-07      0.003 (TRAH MIcro)
  154     dE    -4.585339e-07     1.325072e-03    -9.5948e-07      0.003 (TRAH MIcro)
  154     dE    -5.329410e-07     1.790339e-03    -1.1993e-06      0.003 (TRAH MIcro)
  154     dE    -7.556068e-07     1.700835e-03    -1.6048e-06      0.003 (TRAH MIcro)
  154     dE    -8.086643e-07     1.552662e-03    -1.8206e-06      0.003 (TRAH MIcro)
  154     dE    -8.384305e-07     1.628333e-03    -1.7544e-06      0.003 (TRAH MIcro)
  154     dE    -9.753290e-07     2.356465e-03    -2.0714e-06      0.003 (TRAH MIcro)
  154     dE    -1.125835e-06     2.412875e-03    -2.3208e-06      0.003 (TRAH MIcro)
  154     dE    -1.207275e-06     2.286146e-03    -2.4700e-06      0.004 (TRAH MIcro)
  154     dE    -1.301546e-06     2.244242e-03    -2.6830e-06      0.004 (TRAH MIcro)
WARNING: 4 diagonal Hessian elements are negative!
  155     -18956.296464363852     2.243050e-03                30375940.634 (TRAH MAcro)   No
WARNING : negative HOMO - LUMO gap : -0.002643
  155     dE    -6.314873e-08     7.702609e-03    -5.0825e-04      0.000 (TRAH MIcro)
  155     dE    -1.183764e-07     5.934271e-03    -2.0620e-06      0.000 (TRAH MIcro)
  155     dE    -2.492010e-07     3.960733e-03    -7.6645e-07      0.001 (TRAH MIcro)
  155     dE    -3.804123e-07     2.822256e-03    -9.5769e-07      0.002 (TRAH MIcro)
  155     dE    -4.678396e-07     2.347256e-03    -9.9359e-07      0.003 (TRAH MIcro)
  155     dE    -5.253593e-07     2.073372e-03    -1.1075e-06      0.003 (TRAH MIcro)
  155     dE    -5.566317e-07     1.993133e-03    -1.1474e-06      0.003 (TRAH MIcro)
  155     dE    -7.575112e-07     2.040812e-03    -1.6028e-06      0.003 (TRAH MIcro)
  155     dE    -9.027574e-07     2.285279e-03    -1.9173e-06      0.003 (TRAH MIcro)
  155     dE    -9.214288e-07     2.209242e-03    -2.0744e-06      0.003 (TRAH MIcro)
  155     dE    -9.742606e-07     2.464125e-03    -2.0386e-06      0.003 (TRAH MIcro)
  155     dE    -1.156360e-06     2.761867e-03    -2.4559e-06      0.003 (TRAH MIcro)
  155     dE    -1.271411e-06     2.518455e-03    -2.5817e-06      0.004 (TRAH MIcro)
  155     dE    -1.313050e-06     2.750387e-03    -2.7067e-06      0.004 (TRAH MIcro)
WARNING: 4 diagonal Hessian elements are negative!
  156     -18956.296465677126     2.750074e-03                36451128.761 (TRAH MAcro)   No
WARNING : negative HOMO - LUMO gap : -0.002648
  156     dE    -8.156293e-09     2.972717e-03    -1.6312e-02      0.000 (TRAH MIcro)
  156     dE    -5.047226e-08     2.506184e-03    -2.3090e-04      0.000 (TRAH MIcro)
  156     dE    -1.507287e-07     2.483604e-03    -1.8293e-06      0.001 (TRAH MIcro)
  156     dE    -3.684408e-07     1.926686e-03    -9.2756e-07      0.002 (TRAH MIcro)
  156     dE    -4.515709e-07     1.251615e-03    -1.1368e-06      0.003 (TRAH MIcro)
  156     dE    -5.016442e-07     1.494167e-03    -1.2629e-06      0.003 (TRAH MIcro)
  156     dE    -6.441316e-07     1.895386e-03    -1.4501e-06      0.002 (TRAH MIcro)
  156     dE    -7.767546e-07     1.545000e-03    -1.9555e-06      0.003 (TRAH MIcro)
  156     dE    -8.115269e-07     1.514786e-03    -1.7235e-06      0.003 (TRAH MIcro)
  156     dE    -8.630665e-07     1.820924e-03    -1.8876e-06      0.003 (TRAH MIcro)
  156     dE    -9.962295e-07     2.398642e-03    -2.1158e-06      0.003 (TRAH MIcro)
  156     dE    -1.128447e-06     2.465459e-03    -2.6886e-06      0.003 (TRAH MIcro)
  156     dE    -1.263655e-06     2.165866e-03    -2.6837e-06      0.004 (TRAH MIcro)
  156     dE    -1.317019e-06     2.249471e-03    -2.7149e-06      0.004 (TRAH MIcro)
WARNING: 4 diagonal Hessian elements are negative!
  157     -18956.296466994092     2.247679e-03                43741354.513 (TRAH MAcro)   No
WARNING : negative HOMO - LUMO gap : -0.002642
  157     dE    -6.102742e-08     7.812611e-03    -4.3278e-03      0.000 (TRAH MIcro)
  157     dE    -1.003724e-07     6.163640e-03    -5.5379e-05      0.000 (TRAH MIcro)
  157     dE    -2.733245e-07     4.189708e-03    -1.2100e-06      0.001 (TRAH MIcro)
  157     dE    -4.081184e-07     2.644858e-03    -1.5227e-06      0.002 (TRAH MIcro)
  157     dE    -5.161408e-07     1.973059e-03    -1.2994e-06      0.003 (TRAH MIcro)
  157     dE    -5.755795e-07     1.631851e-03    -1.2773e-06      0.003 (TRAH MIcro)
  157     dE    -6.032702e-07     1.580864e-03    -1.3484e-06      0.003 (TRAH MIcro)
  157     dE    -6.653811e-07     1.795211e-03    -1.4980e-06      0.003 (TRAH MIcro)
  157     dE    -9.221890e-07     2.224117e-03    -2.2590e-06      0.003 (TRAH MIcro)
  157     dE    -9.721782e-07     2.258004e-03    -2.3814e-06      0.003 (TRAH MIcro)
  157     dE    -9.939074e-07     2.374504e-03    -2.2376e-06      0.003 (TRAH MIcro)
  157     dE    -1.061363e-06     2.715336e-03    -2.3895e-06      0.003 (TRAH MIcro)
  157     dE    -1.403463e-06     2.690184e-03    -2.9586e-06      0.004 (TRAH MIcro)
  157     dE    -1.527917e-06     2.866129e-03    -3.1496e-06      0.005 (TRAH MIcro)
WARNING: 4 diagonal Hessian elements are negative!
  158     -18956.296468522258     2.866461e-03                52489625.415 (TRAH MAcro)   No
WARNING : negative HOMO - LUMO gap : -0.002644
  158     dE    -1.225299e-08     3.983573e-03    -2.4504e-02      0.000 (TRAH MIcro)
  158     dE    -1.023149e-07     3.249044e-03    -5.0014e-05      0.000 (TRAH MIcro)
  158     dE    -4.382823e-07     2.607055e-03    -1.1034e-06      0.002 (TRAH MIcro)
  158     dE    -6.199502e-07     1.377638e-03    -1.3166e-06      0.003 (TRAH MIcro)
  158     dE    -6.434248e-07     1.244192e-03    -1.3665e-06      0.003 (TRAH MIcro)
  158     dE    -6.754360e-07     1.410208e-03    -1.6093e-06      0.003 (TRAH MIcro)
  158     dE    -8.139872e-07     1.987612e-03    -1.9394e-06      0.003 (TRAH MIcro)
  158     dE    -9.590830e-07     1.686540e-03    -2.6841e-06      0.003 (TRAH MIcro)
  158     dE    -9.933430e-07     1.595491e-03    -2.5008e-06      0.003 (TRAH MIcro)
  158     dE    -1.041319e-06     1.665888e-03    -2.3443e-06      0.003 (TRAH MIcro)
  158     dE    -1.110501e-06     1.996469e-03    -2.3585e-06      0.003 (TRAH MIcro)
  158     dE    -1.299465e-06     2.614260e-03    -2.9255e-06      0.003 (TRAH MIcro)
  158     dE    -1.526304e-06     2.279073e-03    -3.1463e-06      0.004 (TRAH MIcro)
  158     dE    -1.570642e-06     2.258001e-03    -3.2377e-06      0.004 (TRAH MIcro)
WARNING: 4 diagonal Hessian elements are negative!
  159     -18956.296470092664     2.258918e-03                62987550.499 (TRAH MAcro)   No
WARNING : negative HOMO - LUMO gap : -0.002639
  159     dE    -4.035796e-08     7.314040e-03    -2.8622e-03      0.000 (TRAH MIcro)
  159     dE    -9.284054e-08     6.156110e-03    -4.4625e-06      0.000 (TRAH MIcro)
  159     dE    -3.318692e-07     3.991670e-03    -1.4692e-06      0.002 (TRAH MIcro)
  159     dE    -5.159416e-07     2.189590e-03    -1.2989e-06      0.002 (TRAH MIcro)
  159     dE    -5.706078e-07     1.710786e-03    -1.5969e-06      0.003 (TRAH MIcro)
  159     dE    -6.246443e-07     1.696170e-03    -1.5725e-06      0.003 (TRAH MIcro)
  159     dE    -6.604234e-07     1.800860e-03    -1.5735e-06      0.003 (TRAH MIcro)
  159     dE    -7.473535e-07     1.971476e-03    -1.8815e-06      0.003 (TRAH MIcro)
  159     dE    -9.524178e-07     1.962926e-03    -2.2692e-06      0.003 (TRAH MIcro)
  159     dE    -9.986537e-07     1.937706e-03    -2.2483e-06      0.003 (TRAH MIcro)
  159     dE    -1.018303e-06     2.100815e-03    -2.4261e-06      0.003 (TRAH MIcro)
  159     dE    -1.150598e-06     2.811230e-03    -2.5903e-06      0.003 (TRAH MIcro)
  159     dE    -1.400088e-06     2.721449e-03    -3.0621e-06      0.004 (TRAH MIcro)
  159     dE    -1.501829e-06     2.852469e-03    -3.0727e-06      0.005 (TRAH MIcro)
WARNING: 4 diagonal Hessian elements are negative!
  160     -18956.296471596041     2.850530e-03                75585060.598 (TRAH MAcro)   No
WARNING : negative HOMO - LUMO gap : -0.002642
  160     dE    -1.004421e-08     3.447632e-03    -2.0087e-02      0.000 (TRAH MIcro)
  160     dE    -8.640223e-08     2.775547e-03    -1.7937e-04      0.000 (TRAH MIcro)
  160     dE    -3.414672e-07     2.588456e-03    -1.5117e-06      0.002 (TRAH MIcro)
  160     dE    -5.342750e-07     1.419147e-03    -1.2028e-06      0.003 (TRAH MIcro)
  160     dE    -5.609541e-07     1.211086e-03    -1.4122e-06      0.003 (TRAH MIcro)
  160     dE    -5.868925e-07     1.317202e-03    -1.4775e-06      0.003 (TRAH MIcro)
  160     dE    -6.752583e-07     1.837995e-03    -1.7000e-06      0.003 (TRAH MIcro)
  160     dE    -8.360901e-07     1.842778e-03    -1.8823e-06      0.003 (TRAH MIcro)
  160     dE    -8.957932e-07     1.659428e-03    -2.5069e-06      0.003 (TRAH MIcro)
  160     dE    -9.428520e-07     1.515044e-03    -2.1226e-06      0.003 (TRAH MIcro)
  160     dE    -9.944105e-07     1.689907e-03    -2.5034e-06      0.003 (TRAH MIcro)
  160     dE    -1.164851e-06     2.622152e-03    -2.5476e-06      0.004 (TRAH MIcro)
  160     dE    -1.462210e-06     2.402792e-03    -3.2682e-06      0.005 (TRAH MIcro)
  160     dE    -1.511650e-06     2.209896e-03    -3.1985e-06      0.005 (TRAH MIcro)
WARNING: 4 diagonal Hessian elements are negative!
  161     -18956.296473106981     2.209022e-03                90702072.718 (TRAH MAcro)   No
WARNING : negative HOMO - LUMO gap : -0.002638
  161     dE    -2.690490e-08     6.259253e-03    -5.3778e-02      0.000 (TRAH MIcro)
  161     dE    -1.433475e-07     4.900843e-03    -7.9089e-05      0.000 (TRAH MIcro)
  161     dE    -5.447745e-07     2.722999e-03    -3.9940e-06      0.002 (TRAH MIcro)
  161     dE    -7.414575e-07     2.227948e-03    -3.2824e-06      0.002 (TRAH MIcro)
  161     dE    -7.831906e-07     2.112384e-03    -2.9221e-06      0.002 (TRAH MIcro)
  161     dE    -8.217528e-07     1.962270e-03    -2.5429e-06      0.002 (TRAH MIcro)
  161     dE    -8.507534e-07     2.110207e-03    -3.7639e-06      0.002 (TRAH MIcro)
  161     dE    -9.102738e-07     2.500305e-03    -3.3962e-06      0.003 (TRAH MIcro)
  161     dE    -1.123077e-06     3.200355e-03    -2.4563e-06      0.003 (TRAH MIcro)
  161     dE    -1.178177e-06     3.036237e-03    -2.9259e-06      0.004 (TRAH MIcro)
  161     dE    -1.210169e-06     3.114391e-03    -2.7244e-06      0.004 (TRAH MIcro)
  161     dE    -1.936807e-06     5.075667e-03    -3.9775e-06      0.006 (TRAH MIcro)
  161     dE    -3.612928e-06     5.062407e-03    -7.2764e-06      0.013 (TRAH MIcro)
  161     dE    -4.107906e-06     4.853996e-03    -8.2454e-06      0.015 (TRAH MIcro)
WARNING: 4 diagonal Hessian elements are negative!
  162     -18956.296477230120     4.814074e-03                108842487.261 (TRAH MAcro)   No
WARNING : negative HOMO - LUMO gap : -0.002635
  162     dE    -3.673823e-07     9.407787e-03    -6.7312e-04      0.000 (TRAH MIcro)
  162     dE    -7.949177e-07     8.531921e-03    -3.5191e-06      0.002 (TRAH MIcro)
  162     dE    -1.733424e-06     5.367385e-03    -3.6271e-06      0.006 (TRAH MIcro)
  162     dE    -2.243202e-06     3.182332e-03    -4.5548e-06      0.008 (TRAH MIcro)
  162     dE    -2.295596e-06     3.047148e-03    -4.7231e-06      0.008 (TRAH MIcro)
  162     dE    -2.386177e-06     2.968520e-03    -4.9002e-06      0.007 (TRAH MIcro)
  162     dE    -2.717120e-06     2.528710e-03    -5.5171e-06      0.007 (TRAH MIcro)
  162     dE    -2.877185e-06     1.734700e-03    -5.9308e-06      0.007 (TRAH MIcro)
  162     dE    -2.919547e-06     1.705094e-03    -5.9281e-06      0.007 (TRAH MIcro)
  162     dE    -3.003142e-06     2.012961e-03    -6.0518e-06      0.007 (TRAH MIcro)
  162     dE    -3.107474e-06     2.309574e-03    -6.3096e-06      0.008 (TRAH MIcro)
  162     dE    -3.323451e-06     2.181792e-03    -6.6971e-06      0.009 (TRAH MIcro)
  162     dE    -3.430296e-06     1.720126e-03    -6.9122e-06      0.010 (TRAH MIcro)
  162     dE    -3.451170e-06     1.716291e-03    -6.9807e-06      0.010 (TRAH MIcro)
WARNING: 4 diagonal Hessian elements are negative!
  163     -18956.296480677833     1.705245e-03                130610984.714 (TRAH MAcro)   No
WARNING : negative HOMO - LUMO gap : -0.002640
  163     dE    -4.190230e-08     4.688076e-03    -1.3278e-03      0.000 (TRAH MIcro)
  163     dE    -6.067064e-08     4.277449e-03    -3.3474e-05      0.000 (TRAH MIcro)
  163     dE    -1.688154e-07     3.433385e-03    -1.3177e-06      0.001 (TRAH MIcro)
  163     dE    -3.161610e-07     1.570717e-03    -9.7837e-07      0.003 (TRAH MIcro)
  163     dE    -3.360154e-07     1.269963e-03    -9.4037e-07      0.003 (TRAH MIcro)
  163     dE    -3.668351e-07     1.403066e-03    -1.0266e-06      0.003 (TRAH MIcro)
  163     dE    -4.487471e-07     1.882905e-03    -1.0992e-06      0.003 (TRAH MIcro)
  163     dE    -5.913728e-07     2.111447e-03    -1.7414e-06      0.003 (TRAH MIcro)
  163     dE    -7.003748e-07     2.246212e-03    -2.0624e-06      0.003 (TRAH MIcro)
  163     dE    -7.882669e-07     2.623526e-03    -1.6741e-06      0.004 (TRAH MIcro)
  163     dE    -8.466304e-07     3.244781e-03    -1.7981e-06      0.004 (TRAH MIcro)
  163     dE    -1.069494e-06     4.250051e-03    -2.2046e-06      0.005 (TRAH MIcro)
  163     dE    -1.672912e-06     4.613318e-03    -3.3968e-06      0.008 (TRAH MIcro)
  163     dE    -1.891820e-06     4.880812e-03    -3.8267e-06      0.010 (TRAH MIcro)
WARNING: 4 diagonal Hessian elements are negative!
  164     -18956.296482571510     4.886302e-03                156733181.656 (TRAH MAcro)   No
WARNING : negative HOMO - LUMO gap : -0.002647
  164     dE    -2.021180e-08     4.105033e-03    -4.0421e-02      0.000 (TRAH MIcro)
  164     dE    -1.691065e-07     3.544674e-03    -7.2668e-05      0.000 (TRAH MIcro)
  164     dE    -8.021836e-07     3.519428e-03    -2.4824e-06      0.003 (TRAH MIcro)
  164     dE    -1.078042e-06     2.270710e-03    -2.2895e-06      0.005 (TRAH MIcro)
  164     dE    -1.141046e-06     1.872531e-03    -2.4233e-06      0.005 (TRAH MIcro)
  164     dE    -1.199967e-06     1.842890e-03    -2.7015e-06      0.005 (TRAH MIcro)
  164     dE    -1.266070e-06     1.939912e-03    -2.6888e-06      0.004 (TRAH MIcro)
  164     dE    -1.374364e-06     2.093524e-03    -3.3666e-06      0.004 (TRAH MIcro)
  164     dE    -1.501649e-06     1.862947e-03    -3.7804e-06      0.004 (TRAH MIcro)
  164     dE    -1.572916e-06     1.427876e-03    -3.9598e-06      0.004 (TRAH MIcro)
  164     dE    -1.596590e-06     1.538926e-03    -4.0194e-06      0.004 (TRAH MIcro)
  164     dE    -1.669318e-06     2.070134e-03    -4.0890e-06      0.005 (TRAH MIcro)
  164     dE    -1.898133e-06     1.797482e-03    -3.8834e-06      0.007 (TRAH MIcro)
  164     dE    -1.925783e-06     1.760890e-03    -3.9697e-06      0.007 (TRAH MIcro)
WARNING: 4 diagonal Hessian elements are negative!
  165     -18956.296484496554     1.758661e-03                188079817.988 (TRAH MAcro)   No
WARNING : negative HOMO - LUMO gap : -0.002634
  165     dE    -2.377555e-08     5.602503e-03    -1.1909e-02      0.000 (TRAH MIcro)
  165     dE    -4.947475e-08     4.770417e-03    -3.9818e-04      0.000 (TRAH MIcro)
  165     dE    -2.420151e-07     3.421111e-03    -3.5476e-06      0.001 (TRAH MIcro)
  165     dE    -3.564434e-07     1.739369e-03    -1.1030e-06      0.002 (TRAH MIcro)
  165     dE    -3.881515e-07     1.236026e-03    -2.3279e-06      0.002 (TRAH MIcro)
  165     dE    -4.135351e-07     1.374801e-03    -2.4801e-06      0.002 (TRAH MIcro)
  165     dE    -4.970387e-07     1.934589e-03    -1.5381e-06      0.002 (TRAH MIcro)
  165     dE    -7.577537e-07     2.459597e-03    -2.2313e-06      0.003 (TRAH MIcro)
  165     dE    -8.058998e-07     2.446871e-03    -1.9201e-06      0.003 (TRAH MIcro)
  165     dE    -8.822328e-07     2.887089e-03    -2.2210e-06      0.003 (TRAH MIcro)
  165     dE    -1.175391e-06     4.326868e-03    -2.9190e-06      0.004 (TRAH MIcro)
  165     dE    -1.391680e-06     4.669531e-03    -3.5035e-06      0.005 (TRAH MIcro)
  165     dE    -1.513202e-06     4.421969e-03    -3.4066e-06      0.005 (TRAH MIcro)
  165     dE    -1.813884e-06     5.037883e-03    -4.0835e-06      0.006 (TRAH MIcro)
WARNING: 4 diagonal Hessian elements are negative!
  166     -18956.296486310803     5.037147e-03                225695781.585 (TRAH MAcro)   No
WARNING : negative HOMO - LUMO gap : -0.002650
  166     dE    -2.976516e-08     5.825384e-03    -5.9522e-02      0.000 (TRAH MIcro)
  166     dE    -2.836965e-07     3.454720e-03    -5.8894e-04      0.000 (TRAH MIcro)
  166     dE    -4.112000e-07     3.318478e-03    -3.8628e-05      0.001 (TRAH MIcro)
  166     dE    -6.218594e-07     3.171150e-03    -2.7530e-06      0.002 (TRAH MIcro)
  166     dE    -9.402549e-07     2.148184e-03    -2.6314e-06      0.004 (TRAH MIcro)
  166     dE    -1.023101e-06     1.649973e-03    -2.5408e-06      0.004 (TRAH MIcro)
  166     dE    -1.052076e-06     1.701388e-03    -2.6486e-06      0.004 (TRAH MIcro)
  166     dE    -1.143282e-06     2.042400e-03    -2.8587e-06      0.004 (TRAH MIcro)
  166     dE    -1.377081e-06     1.644348e-03    -4.2093e-06      0.004 (TRAH MIcro)
  166     dE    -1.431875e-06     1.261452e-03    -3.2236e-06      0.004 (TRAH MIcro)
  166     dE    -1.452289e-06     1.345300e-03    -3.6561e-06      0.004 (TRAH MIcro)
  166     dE    -1.554493e-06     1.996343e-03    -3.7036e-06      0.004 (TRAH MIcro)
  166     dE    -1.676088e-06     1.778271e-03    -4.2195e-06      0.004 (TRAH MIcro)
  166     dE    -1.710613e-06     1.593771e-03    -3.8511e-06      0.004 (TRAH MIcro)
