
                                 *****************
                                 * O   R   C   A *
                                 *****************

                                            #,                                       
                                            ###                                      
                                            ####                                     
                                            #####                                    
                                            ######                                   
                                           ########,                                 
                                     ,,################,,,,,                         
                               ,,#################################,,                 
                          ,,##########################################,,             
                       ,#########################################, ''#####,          
                    ,#############################################,,   '####,        
                  ,##################################################,,,,####,       
                ,###########''''           ''''###############################       
              ,#####''   ,,,,##########,,,,          '''####'''          '####       
            ,##' ,,,,###########################,,,                        '##       
           ' ,,###''''                  '''############,,,                           
         ,,##''                                '''############,,,,        ,,,,,,###''
      ,#''                                            '''#######################'''  
     '                                                          ''''####''''         
             ,#######,   #######,   ,#######,      ##                                
            ,#'     '#,  ##    ##  ,#'     '#,    #''#        ######   ,####,        
            ##       ##  ##   ,#'  ##            #'  '#       #        #'  '#        
            ##       ##  #######   ##           ,######,      #####,   #    #        
            '#,     ,#'  ##    ##  '#,     ,#' ,#      #,         ##   #,  ,#        
             '#######'   ##     ##  '#######'  #'      '#     #####' # '####'        



                  #######################################################
                  #                        -***-                        #
                  #          Department of theory and spectroscopy      #
                  #    Directorship and core code : Frank Neese         #
                  #        Max Planck Institute fuer Kohlenforschung    #
                  #                Kaiser Wilhelm Platz 1               #
                  #                 D-45470 Muelheim/Ruhr               #
                  #                      Germany                        #
                  #                                                     #
                  #                  All rights reserved                #
                  #                        -***-                        #
                  #######################################################



                         Program Version 5.0.4 -  RELEASE  -

 With contributions from (in alphabetic order):
   Daniel Aravena         : Magnetic Suceptibility
   Michael Atanasov       : Ab Initio Ligand Field Theory (pilot matlab implementation)
   Alexander A. Auer      : GIAO ZORA, VPT2 properties, NMR spectrum
   Ute Becker             : Parallelization
   Giovanni Bistoni       : ED, misc. LED, open-shell LED, HFLD
   Martin Brehm           : Molecular dynamics
   Dmytro Bykov           : SCF Hessian
   Vijay G. Chilkuri      : MRCI spin determinant printing, contributions to CSF-ICE
   Dipayan Datta          : RHF DLPNO-CCSD density
   Achintya Kumar Dutta   : EOM-CC, STEOM-CC
   Dmitry Ganyushin       : Spin-Orbit,Spin-Spin,Magnetic field MRCI
   Miquel Garcia          : C-PCM and meta-GGA Hessian, CC/C-PCM, Gaussian charge scheme
   Yang Guo               : DLPNO-NEVPT2, F12-NEVPT2, CIM, IAO-localization
   Andreas Hansen         : Spin unrestricted coupled pair/coupled cluster methods
   Benjamin Helmich-Paris : MC-RPA, TRAH-SCF, COSX integrals
   Lee Huntington         : MR-EOM, pCC
   Robert Izsak           : Overlap fitted RIJCOSX, COSX-SCS-MP3, EOM
   Marcus Kettner         : VPT2
   Christian Kollmar      : KDIIS, OOCD, Brueckner-CCSD(T), CCSD density, CASPT2, CASPT2-K
   Simone Kossmann        : Meta GGA functionals, TD-DFT gradient, OOMP2, MP2 Hessian
   Martin Krupicka        : Initial AUTO-CI
   Lucas Lang             : DCDCAS
   Marvin Lechner         : AUTO-CI (C++ implementation), FIC-MRCC
   Dagmar Lenk            : GEPOL surface, SMD
   Dimitrios Liakos       : Extrapolation schemes; Compound Job, initial MDCI parallelization
   Dimitrios Manganas     : Further ROCIS development; embedding schemes
   Dimitrios Pantazis     : SARC Basis sets
   Anastasios Papadopoulos: AUTO-CI, single reference methods and gradients
   Taras Petrenko         : DFT Hessian,TD-DFT gradient, ASA, ECA, R-Raman, ABS, FL, XAS/XES, NRVS
   Peter Pinski           : DLPNO-MP2, DLPNO-MP2 Gradient
   Christoph Reimann      : Effective Core Potentials
   Marius Retegan         : Local ZFS, SOC
   Christoph Riplinger    : Optimizer, TS searches, QM/MM, DLPNO-CCSD(T), (RO)-DLPNO pert. Triples
   Tobias Risthaus        : Range-separated hybrids, TD-DFT gradient, RPA, STAB
   Michael Roemelt        : Original ROCIS implementation
   Masaaki Saitow         : Open-shell DLPNO-CCSD energy and density
   Barbara Sandhoefer     : DKH picture change effects
   Avijit Sen             : IP-ROCIS
   Kantharuban Sivalingam : CASSCF convergence, NEVPT2, FIC-MRCI
   Bernardo de Souza      : ESD, SOC TD-DFT
   Georgi Stoychev        : AutoAux, RI-MP2 NMR, DLPNO-MP2 response
   Willem Van den Heuvel  : Paramagnetic NMR
   Boris Wezisla          : Elementary symmetry handling
   Frank Wennmohs         : Technical directorship


 We gratefully acknowledge several colleagues who have allowed us to
 interface, adapt or use parts of their codes:
   Stefan Grimme, W. Hujo, H. Kruse, P. Pracht,  : VdW corrections, initial TS optimization,
                  C. Bannwarth, S. Ehlert          DFT functionals, gCP, sTDA/sTD-DF
   Ed Valeev, F. Pavosevic, A. Kumar             : LibInt (2-el integral package), F12 methods
   Garnet Chan, S. Sharma, J. Yang, R. Olivares  : DMRG
   Ulf Ekstrom                                   : XCFun DFT Library
   Mihaly Kallay                                 : mrcc  (arbitrary order and MRCC methods)
   Jiri Pittner, Ondrej Demel                    : Mk-CCSD
   Frank Weinhold                                : gennbo (NPA and NBO analysis)
   Christopher J. Cramer and Donald G. Truhlar   : smd solvation model
   Lars Goerigk                                  : TD-DFT with DH, B97 family of functionals
   V. Asgeirsson, H. Jonsson                     : NEB implementation
   FAccTs GmbH                                   : IRC, NEB, NEB-TS, DLPNO-Multilevel, CI-OPT
                                                   MM, QMMM, 2- and 3-layer-ONIOM, Crystal-QMMM,
                                                   LR-CPCM, SF, NACMEs, symmetry and pop. for TD-DFT,
                                                   nearIR, NL-DFT gradient (VV10), updates on ESD,
                                                   ML-optimized integration grids
   S Lehtola, MJT Oliveira, MAL Marques          : LibXC Library
   Liviu Ungur et al                             : ANISO software


 Your calculation uses the libint2 library for the computation of 2-el integrals
 For citations please refer to: http://libint.valeyev.net

 Your ORCA version has been built with support for libXC version: 5.1.0
 For citations please refer to: https://tddft.org/programs/libxc/

 This ORCA versions uses:
   CBLAS   interface :  Fast vector & matrix operations
   LAPACKE interface :  Fast linear algebra routines
   Shared memory     :  Shared parallel matrices


Your calculation utilizes the atom-pairwise dispersion correction
based on tight binding partial charges (D4)
Cite in your paper:
E.Caldeweyher, C.Bannwarth, S.Grimme, J.Chem.Phys., (2017), 147, 034112.
E.Caldeweyher, S.Ehlert, A.Hansen, H.Neugebauer, S.Grimme, J.Chem.Phys., (2018), in progress.
   

================================================================================

----- Orbital basis set information -----
Your calculation utilizes the basis: def2-TZVP
   F. Weigend and R. Ahlrichs, Phys. Chem. Chem. Phys. 7, 3297 (2005).

----- AuxJ basis set information -----
Your calculation utilizes the auxiliary basis: def2/J
   F. Weigend, Phys. Chem. Chem. Phys. 8, 1057 (2006).

================================================================================
                                        WARNINGS
                       Please study these warnings very carefully!
================================================================================


WARNING: Geometry Optimization
  ===> : Switching off AutoStart
         For restart on a previous wavefunction, please use MOREAD

INFO   : the flag for use of the SHARK integral package has been found!

================================================================================
                                       INPUT FILE
================================================================================
NAME = Fe_Porphyrin_opt.inp
|  1> !B3LYP DEF2-TZVP OPT CPCM(CH2CL2) D4
|  2> 
|  3> * xyz 0 1
|  4>    C        3.91177        1.96573       -0.06586
|  5>    C        4.38298        0.66952       -0.07748
|  6>    C        3.18693       -0.17369       -0.14942
|  7>    C        2.45006        1.87505       -0.11572
|  8>    N        2.06136        0.66097       -0.18836
|  9>    C        1.53951        3.02176        0.03782
| 10>    C        0.19336        2.97742        0.05507
| 11>    N       -0.59659        1.88453       -0.07537
| 12>    C       -1.87730        2.32744       -0.04275
| 13>    C       -0.58827        4.09532        0.25459
| 14>    C       -1.89729        3.68472        0.18438
| 15>    C       -3.00125        1.59805       -0.15307
| 16>    C       -3.07442        0.13788       -0.25784
| 17>    N       -2.05429       -0.62928       -0.24798
| 18>    C       -3.95920       -1.93715        0.00448
| 19>    C       -4.32084       -0.61669       -0.14239
| 20>    C       -0.19782       -2.97969       -0.01878
| 21>    N        0.60618       -1.89197       -0.12111
| 22>    C        1.88868       -2.33461       -0.09685
| 23>    C        1.89476       -3.71029        0.01773
| 24>    C        0.57756       -4.11582        0.07327
| 25>    C        3.13878       -1.51461       -0.10699
| 26>    C       -1.68973       -3.01088        0.04834
| 27>    C       -2.49653       -1.94744       -0.07639
| 28>    H        4.50781        2.86774        0.00363
| 29>    H        5.42251        0.37562       -0.00723
| 30>    H        2.01921        3.98765        0.16552
| 31>    H       -0.24069        5.09704        0.46025
| 32>    H       -2.77542        4.29794        0.32852
| 33>    H       -3.95630        2.11192       -0.09379
| 34>    H       -4.64006       -2.76109        0.16923
| 35>    H       -5.32563       -0.21303       -0.11937
| 36>    H        2.76452       -4.34835        0.09087
| 37>    H        0.21965       -5.12882        0.19602
| 38>    H        4.08350       -2.04631       -0.03103
| 39>    H       -2.16104       -3.97385        0.22279
| 40>   Fe        0.00977       -0.00332       -0.09825
| 41> **                         ****END OF INPUT****
================================================================================

                       *****************************
                       * Geometry Optimization Run *
                       *****************************

Geometry optimization settings:
Update method            Update   .... BFGS
Choice of coordinates    CoordSys .... Z-matrix Internals
Initial Hessian          InHess   .... Almoef's Model

Convergence Tolerances:
Energy Change            TolE     ....  5.0000e-06 Eh
Max. Gradient            TolMAXG  ....  3.0000e-04 Eh/bohr
RMS Gradient             TolRMSG  ....  1.0000e-04 Eh/bohr
Max. Displacement        TolMAXD  ....  4.0000e-03 bohr
RMS Displacement         TolRMSD  ....  2.0000e-03 bohr
Strict Convergence                ....  False
------------------------------------------------------------------------------
                        ORCA OPTIMIZATION COORDINATE SETUP
------------------------------------------------------------------------------

The optimization will be done in new redundant internal coordinates
Making redundant internal coordinates   ...  (new redundants) done
Evaluating the initial hessian          ...  (Almloef) done
Evaluating the coordinates              ...  done
Calculating the B-matrix                .... done
Calculating the G-matrix                .... done
Diagonalizing the G-matrix              .... done
The first mode is                       ....  152
The number of degrees of freedom        ....  105

    -----------------------------------------------------------------
                    Redundant Internal Coordinates


    -----------------------------------------------------------------
         Definition                    Initial Value    Approx d2E/dq
    -----------------------------------------------------------------
      1. B(C   1,C   0)                  1.3793         0.649961   
      2. B(C   2,C   1)                  1.4652         0.474040   
      3. B(C   3,C   0)                  1.4654         0.473688   
      4. B(N   4,C   2)                  1.4018         0.535831   
      5. B(N   4,C   3)                  1.2769         0.847996   
      6. B(C   5,C   3)                  1.4723         0.461806   
      7. B(C   6,C   5)                  1.3470         0.731741   
      8. B(N   7,C   6)                  1.3548         0.636880   
      9. B(C   8,N   7)                  1.3555         0.635150   
     10. B(C   9,C   6)                  1.3786         0.651591   
     11. B(C  10,C   9)                  1.3737         0.663349   
     12. B(C  10,C   8)                  1.3763         0.657051   
     13. B(C  11,C   8)                  1.3444         0.738705   
     14. B(C  12,C  11)                  1.4658         0.473023   
     15. B(N  13,C  12)                  1.2764         0.849287   
     16. B(C  15,C  14)                  1.3769         0.655499   
     17. B(C  15,C  12)                  1.4616         0.480296   
     18. B(N  17,C  16)                  1.3565         0.632942   
     19. B(C  18,N  17)                  1.3570         0.631826   
     20. B(C  19,C  18)                  1.3805         0.647089   
     21. B(C  20,C  19)                  1.3793         0.649770   
     22. B(C  20,C  16)                  1.3786         0.651570   
     23. B(C  21,C  18)                  1.4951         0.424714   
     24. B(C  21,C   2)                  1.3425         0.744036   
     25. B(C  22,C  16)                  1.4937         0.426796   
     26. B(C  23,C  22)                  1.3407         0.748938   
     27. B(C  23,C  14)                  1.4649         0.474435   
     28. B(C  23,N  13)                  1.4009         0.537601   
     29. B(H  24,C   0)                  1.0834         0.368963   
     30. B(H  25,C   1)                  1.0826         0.370079   
     31. B(H  26,C   5)                  1.0860         0.365451   
     32. B(H  27,C   9)                  1.0801         0.373479   
     33. B(H  28,C  10)                  1.0807         0.372606   
     34. B(H  29,C  11)                  1.0861         0.365245   
     35. B(H  30,C  14)                  1.0815         0.371555   
     36. B(H  31,C  15)                  1.0831         0.369364   
     37. B(H  32,C  19)                  1.0812         0.371957   
     38. B(H  33,C  20)                  1.0814         0.371715   
     39. B(H  34,C  21)                  1.0867         0.364459   
     40. B(H  35,C  22)                  1.0862         0.365133   
     41. B(Fe 36,N  17)                  1.9807         0.646479   
     42. B(Fe 36,N  13)                  2.1621         0.332045   
     43. B(Fe 36,N   7)                  1.9830         0.641140   
     44. B(Fe 36,N   4)                  2.1583         0.336640   
     45. A(C   1,C   0,C   3)          106.4003         0.417158   
     46. A(C   3,C   0,H  24)          127.0490         0.338681   
     47. A(C   1,C   0,H  24)          126.5155         0.357215   
     48. A(C   0,C   1,C   2)          105.2112         0.417213   
     49. A(C   0,C   1,H  25)          125.6376         0.357398   
     50. A(C   2,C   1,H  25)          129.1107         0.338894   
     51. A(C   1,C   2,N   4)          108.3100         0.400592   
     52. A(C   1,C   2,C  21)          127.0544         0.427410   
     53. A(N   4,C   2,C  21)          124.5282         0.434063   
     54. A(C   0,C   3,C   5)          124.4141         0.392730   
     55. A(C   0,C   3,N   4)          111.3729         0.434651   
     56. A(N   4,C   3,C   5)          123.9338         0.432669   
     57. A(C   3,N   4,Fe 36)          125.4250         0.456351   
     58. A(C   2,N   4,Fe 36)          125.3669         0.420098   
     59. A(C   2,N   4,C   3)          108.6709         0.441506   
     60. A(C   3,C   5,H  26)          115.5825         0.336713   
     61. A(C   3,C   5,C   6)          126.4251         0.424147   
     62. A(C   6,C   5,H  26)          117.9834         0.363911   
     63. A(C   5,C   6,C   9)          122.8057         0.451306   
     64. A(C   5,C   6,N   7)          127.4478         0.446473   
     65. A(N   7,C   6,C   9)          109.7240         0.437209   
     66. A(C   8,N   7,Fe 36)          126.8881         0.487105   
     67. A(C   6,N   7,C   8)          106.5589         0.432351   
     68. A(C   6,N   7,Fe 36)          126.2143         0.487350   
     69. A(N   7,C   8,C  10)          109.8722         0.437652   
     70. A(C  10,C   8,C  11)          122.4414         0.452770   
     71. A(N   7,C   8,C  11)          127.6350         0.447019   
     72. A(C   6,C   9,C  10)          106.8885         0.443348   
     73. A(C  10,C   9,H  27)          126.4136         0.359199   
     74. A(C   6,C   9,H  27)          126.6684         0.358107   
     75. A(C   9,C  10,H  28)          126.7176         0.359055   
     76. A(C   8,C  10,H  28)          126.3984         0.358473   
     77. A(C   8,C  10,C   9)          106.8199         0.444018   
     78. A(C  12,C  11,H  29)          115.5514         0.338030   
     79. A(C   8,C  11,H  29)          118.2913         0.364466   
     80. A(C   8,C  11,C  12)          126.0200         0.426695   
     81. A(N  13,C  12,C  15)          111.7556         0.435856   
     82. A(C  11,C  12,C  15)          123.4509         0.395343   
     83. A(C  11,C  12,N  13)          123.9369         0.434660   
     84. A(C  23,N  13,Fe 36)          124.4231         0.419316   
     85. A(C  12,N  13,C  23)          108.3106         0.441890   
     86. A(C  12,N  13,Fe 36)          126.1214         0.455336   
     87. A(C  23,C  14,H  30)          129.1718         0.339166   
     88. A(C  15,C  14,H  30)          125.5571         0.358157   
     89. A(C  15,C  14,C  23)          105.2529         0.417906   
     90. A(C  14,C  15,H  31)          126.7835         0.357797   
     91. A(C  12,C  15,H  31)          126.8987         0.339527   
     92. A(C  12,C  15,C  14)          106.2326         0.418821   
     93. A(N  17,C  16,C  20)          109.4215         0.436717   
     94. A(C  20,C  16,C  22)          122.7892         0.409685   
     95. A(N  17,C  16,C  22)          127.7428         0.404965   
     96. A(C  16,N  17,C  18)          107.2938         0.431463   
     97. A(C  18,N  17,Fe 36)          126.5426         0.487380   
     98. A(C  16,N  17,Fe 36)          125.8214         0.487539   
     99. A(C  19,C  18,C  21)          122.9188         0.408830   
    100. A(N  17,C  18,C  21)          127.6788         0.404490   
    101. A(N  17,C  18,C  19)          109.3124         0.436036   
    102. A(C  20,C  19,H  32)          126.2981         0.357688   
    103. A(C  18,C  19,H  32)          126.6744         0.357437   
    104. A(C  18,C  19,C  20)          106.9851         0.441140   
    105. A(C  19,C  20,H  33)          126.5884         0.357649   
    106. A(C  16,C  20,H  33)          126.4024         0.357817   
    107. A(C  16,C  20,C  19)          106.9853         0.441691   
    108. A(C  18,C  21,H  34)          117.2621         0.331913   
    109. A(C   2,C  21,H  34)          117.3702         0.364780   
    110. A(C   2,C  21,C  18)          125.3131         0.419098   
    111. A(C  16,C  22,H  35)          117.3286         0.332284   
    112. A(C  16,C  22,C  23)          125.4722         0.419955   
    113. A(C  23,C  22,H  35)          117.1961         0.365306   
    114. A(C  14,C  23,C  22)          126.9626         0.427977   
    115. A(N  13,C  23,C  22)          124.5957         0.434834   
    116. A(N  13,C  23,C  14)          108.3815         0.400884   
    117. A(N  13,Fe 36,N  17)           90.6072         0.487714   
    118. A(N   4,Fe 36,N  17)           90.3882         0.488957   
    119. A(N   7,Fe 36,N  13)           89.1123         0.486966   
    120. A(N   4,Fe 36,N  13)          173.5468         0.432970   
    121. A(N   4,Fe 36,N   7)           89.8927         0.488207   
    122. D(H  25,C   1,C   0,C   3)   -177.2477         0.029414   
    123. D(C   2,C   1,C   0,H  24)    178.5661         0.029414   
    124. D(H  25,C   1,C   0,H  24)      0.7079         0.029414   
    125. D(C   2,C   1,C   0,C   3)      0.6104         0.029414   
    126. D(C  21,C   2,C   1,C   0)   -175.8621         0.015300   
    127. D(N   4,C   2,C   1,H  25)    178.2380         0.015300   
    128. D(C  21,C   2,C   1,H  25)      1.8944         0.015300   
    129. D(N   4,C   2,C   1,C   0)      0.4814         0.015300   
    130. D(N   4,C   3,C   0,H  24)   -179.6036         0.015278   
    131. D(C   5,C   3,C   0,C   1)    172.4618         0.015278   
    132. D(N   4,C   3,C   0,C   1)     -1.6623         0.015278   
    133. D(C   5,C   3,C   0,H  24)     -5.4795         0.015278   
    134. D(C   3,N   4,C   2,C   1)     -1.5449         0.022824   
    135. D(C   3,N   4,C   2,C  21)    174.9132         0.022824   
    136. D(Fe 36,N   4,C   2,C   1)   -173.4936         0.022824   
    137. D(Fe 36,N   4,C   2,C  21)      2.9645         0.022824   
    138. D(C   2,N   4,C   3,C   5)   -172.1897         0.062221   
    139. D(Fe 36,N   4,C   3,C   0)    173.9107         0.062221   
    140. D(C   2,N   4,C   3,C   0)      1.9678         0.062221   
    141. D(Fe 36,N   4,C   3,C   5)     -0.2468         0.062221   
    142. D(H  26,C   5,C   3,N   4)    175.2685         0.014526   
    143. D(C   6,C   5,C   3,N   4)     -3.6110         0.014526   
    144. D(H  26,C   5,C   3,C   0)      1.8666         0.014526   
    145. D(C   6,C   5,C   3,C   0)   -177.0129         0.014526   
    146. D(C   9,C   6,C   5,C   3)    177.4655         0.038008   
    147. D(C   9,C   6,C   5,H  26)     -1.3900         0.038008   
    148. D(N   7,C   6,C   5,H  26)   -179.4865         0.038008   
    149. D(N   7,C   6,C   5,C   3)     -0.6310         0.038008   
    150. D(C   8,N   7,C   6,C   9)      3.7853         0.032987   
    151. D(Fe 36,N   7,C   6,C   5)      8.4172         0.032987   
    152. D(C   8,N   7,C   6,C   5)   -177.9143         0.032987   
    153. D(Fe 36,N   7,C   6,C   9)   -169.8832         0.032987   
    154. D(C  11,C   8,N   7,Fe 36)     -7.2280         0.032794   
    155. D(C  11,C   8,N   7,C   6)    179.1592         0.032794   
    156. D(C  10,C   8,N   7,Fe 36)    170.1882         0.032794   
    157. D(C  10,C   8,N   7,C   6)     -3.4246         0.032794   
    158. D(H  27,C   9,C   6,N   7)    175.3909         0.029572   
    159. D(H  27,C   9,C   6,C   5)     -3.0038         0.029572   
    160. D(C  10,C   9,C   6,N   7)     -2.7272         0.029572   
    161. D(C  10,C   9,C   6,C   5)    178.8781         0.029572   
    162. D(H  28,C  10,C   9,H  27)     -0.3279         0.030728   
    163. D(C   8,C  10,C   9,H  27)   -177.5536         0.030728   
    164. D(C   8,C  10,C   9,C   6)      0.5707         0.030728   
    165. D(H  28,C  10,C   8,C  11)      2.1138         0.030105   
    166. D(H  28,C  10,C   8,N   7)   -175.4617         0.030105   
    167. D(H  28,C  10,C   9,C   6)    177.7963         0.030728   
    168. D(C   9,C  10,C   8,C  11)    179.3510         0.030105   
    169. D(C   9,C  10,C   8,N   7)      1.7754         0.030105   
    170. D(H  29,C  11,C   8,C  10)      2.1579         0.038803   
    171. D(H  29,C  11,C   8,N   7)    179.2783         0.038803   
    172. D(C  12,C  11,C   8,C  10)   -173.3789         0.038803   
    173. D(C  12,C  11,C   8,N   7)      3.7416         0.038803   
    174. D(C  15,C  12,C  11,H  29)     -6.6662         0.015235   
    175. D(C  15,C  12,C  11,C   8)    168.9778         0.015235   
    176. D(N  13,C  12,C  11,H  29)   -175.1882         0.015235   
    177. D(N  13,C  12,C  11,C   8)      0.4559         0.015235   
    178. D(Fe 36,N  13,C  12,C  15)   -170.3496         0.062436   
    179. D(Fe 36,N  13,C  12,C  11)     -0.6474         0.062436   
    180. D(C  23,N  13,C  12,C  15)     -2.2092         0.062436   
    181. D(C  23,N  13,C  12,C  11)    167.4931         0.062436   
    182. D(H  31,C  15,C  12,C  11)      9.8299         0.015706   
    183. D(C  14,C  15,C  12,C  11)   -166.9814         0.015706   
    184. D(C  14,C  15,C  12,N  13)      2.7795         0.015706   
    185. D(H  31,C  15,C  14,H  30)     -0.2740         0.029953   
    186. D(H  31,C  15,C  14,C  23)   -178.8432         0.029953   
    187. D(C  12,C  15,C  14,H  30)    176.5422         0.029953   
    188. D(C  12,C  15,C  14,C  23)     -2.0271         0.029953   
    189. D(H  31,C  15,C  12,N  13)    179.5909         0.015706   
    190. D(Fe 36,N  17,C  16,C  22)      4.0400         0.032547   
    191. D(Fe 36,N  17,C  16,C  20)   -173.5096         0.032547   
    192. D(C  18,N  17,C  16,C  22)    177.6641         0.032547   
    193. D(C  18,N  17,C  16,C  20)      0.1145         0.032547   
    194. D(C  18,N  17,N   7,C   8)   -177.0025         0.001500   
    195. D(C  18,N  17,N   7,C   6)     -4.6063         0.001500   
    196. D(C  16,N  17,N   7,C   8)     -4.5791         0.001500   
    197. D(C  16,N  17,N   7,C   6)    167.8171         0.001500   
    198. D(C  21,C  18,N  17,Fe 36)     -2.8651         0.032423   
    199. D(C  21,C  18,N  17,C  16)   -176.4300         0.032423   
    200. D(C  19,C  18,N  17,Fe 36)    173.7311         0.032423   
    201. D(C  19,C  18,N  17,C  16)      0.1662         0.032423   
    202. D(H  32,C  19,C  18,C  21)     -1.3301         0.029136   
    203. D(H  32,C  19,C  18,N  17)   -178.1211         0.029136   
    204. D(C  20,C  19,C  18,C  21)    176.4111         0.029136   
    205. D(C  20,C  19,C  18,N  17)     -0.3799         0.029136   
    206. D(H  33,C  20,C  19,H  32)     -0.1171         0.029395   
    207. D(H  33,C  20,C  19,C  18)   -177.8693         0.029395   
    208. D(C  16,C  20,C  19,H  32)    178.1909         0.029395   
    209. D(C  16,C  20,C  19,C  18)      0.4388         0.029395   
    210. D(H  33,C  20,C  16,C  22)      0.2689         0.029570   
    211. D(H  33,C  20,C  16,N  17)    177.9641         0.029570   
    212. D(C  19,C  20,C  16,C  22)   -178.0432         0.029570   
    213. D(C  19,C  20,C  16,N  17)     -0.3480         0.029570   
    214. D(H  34,C  21,C  18,C  19)      0.7109         0.012335   
    215. D(H  34,C  21,C  18,N  17)    176.8836         0.012335   
    216. D(C   2,C  21,C  18,C  19)   -176.5225         0.012335   
    217. D(C   2,C  21,C  18,N  17)     -0.3498         0.012335   
    218. D(H  34,C  21,C   2,N   4)   -177.1100         0.039419   
    219. D(H  34,C  21,C   2,C   1)     -1.3245         0.039419   
    220. D(C  18,C  21,C   2,N   4)      0.1207         0.039419   
    221. D(C  18,C  21,C   2,C   1)    175.9062         0.039419   
    222. D(H  35,C  22,C  16,C  20)      2.8467         0.012452   
    223. D(H  35,C  22,C  16,N  17)   -174.4042         0.012452   
    224. D(C  23,C  22,C  16,C  20)   -177.8092         0.012452   
    225. D(C  23,C  22,C  16,N  17)      4.9399         0.012452   
    226. D(C  14,C  23,C  22,H  35)      0.3684         0.039991   
    227. D(C  14,C  23,C  22,C  16)   -178.9765         0.039991   
    228. D(N  13,C  23,C  22,H  35)    177.2131         0.039991   
    229. D(N  13,C  23,C  22,C  16)     -2.1318         0.039991   
    230. D(C  22,C  23,C  14,H  30)     -0.3750         0.015326   
    231. D(C  22,C  23,C  14,C  15)    178.1236         0.015326   
    232. D(N  13,C  23,C  14,H  30)   -177.6383         0.015326   
    233. D(N  13,C  23,C  14,C  15)      0.8603         0.015326   
    234. D(C  22,C  23,N  13,Fe 36)     -8.0917         0.022982   
    235. D(C  22,C  23,N  13,C  12)   -176.4817         0.022982   
    236. D(C  14,C  23,N  13,Fe 36)    169.2519         0.022982   
    237. D(C  14,C  23,N  13,C  12)      0.8619         0.022982   
    238. D(N  13,Fe 36,N   7,C   8)      5.2100         0.003375   
    239. D(N  13,Fe 36,N   7,C   6)    177.6153         0.003375   
    240. D(N   4,Fe 36,N   7,C   8)    178.8337         0.003375   
    241. D(N   4,Fe 36,N   7,C   6)     -8.7610         0.003375   
    242. D(N  17,Fe 36,N   4,C   3)   -174.9621         0.002020   
    243. D(N  17,Fe 36,N   4,C   2)     -4.3334         0.002020   
    244. D(N  13,Fe 36,N   4,C   3)     86.1680         0.002020   
    245. D(N  13,Fe 36,N   4,C   2)   -103.2033         0.002020   
    246. D(N   7,Fe 36,N   4,C   3)      5.0499         0.002020   
    247. D(N   4,Fe 36,N  13,C  12)    -82.7913         0.002006   
    248. D(N   7,Fe 36,N   4,C   2)    175.6785         0.002020   
    249. D(N  13,Fe 36,N  17,C  18)    177.7869         0.003407   
    250. D(N  13,Fe 36,N  17,C  16)     -9.7969         0.003407   
    251. D(N   4,Fe 36,N  17,C  18)      4.1629         0.003407   
    252. D(N   4,Fe 36,N  17,C  16)    176.5792         0.003407   
    253. D(N  17,Fe 36,N  13,C  23)     12.0326         0.002006   
    254. D(N  17,Fe 36,N  13,C  12)    178.3510         0.002006   
    255. D(N   7,Fe 36,N  13,C  23)   -167.9481         0.002006   
    256. D(N   7,Fe 36,N  13,C  12)     -1.6297         0.002006   
    257. D(N   4,Fe 36,N  13,C  23)    110.8903         0.002006   
    -----------------------------------------------------------------

Number of atoms                         .... 37
Number of degrees of freedom            .... 257

         *************************************************************
         *                GEOMETRY OPTIMIZATION CYCLE   1            *
         *************************************************************
---------------------------------
CARTESIAN COORDINATES (ANGSTROEM)
---------------------------------
  C      3.911770    1.965730   -0.065860
  C      4.382980    0.669520   -0.077480
  C      3.186930   -0.173690   -0.149420
  C      2.450060    1.875050   -0.115720
  N      2.061360    0.660970   -0.188360
  C      1.539510    3.021760    0.037820
  C      0.193360    2.977420    0.055070
  N     -0.596590    1.884530   -0.075370
  C     -1.877300    2.327440   -0.042750
  C     -0.588270    4.095320    0.254590
  C     -1.897290    3.684720    0.184380
  C     -3.001250    1.598050   -0.153070
  C     -3.074420    0.137880   -0.257840
  N     -2.054290   -0.629280   -0.247980
  C     -3.959200   -1.937150    0.004480
  C     -4.320840   -0.616690   -0.142390
  C     -0.197820   -2.979690   -0.018780
  N      0.606180   -1.891970   -0.121110
  C      1.888680   -2.334610   -0.096850
  C      1.894760   -3.710290    0.017730
  C      0.577560   -4.115820    0.073270
  C      3.138780   -1.514610   -0.106990
  C     -1.689730   -3.010880    0.048340
  C     -2.496530   -1.947440   -0.076390
  H      4.507810    2.867740    0.003630
  H      5.422510    0.375620   -0.007230
  H      2.019210    3.987650    0.165520
  H     -0.240690    5.097040    0.460250
  H     -2.775420    4.297940    0.328520
  H     -3.956300    2.111920   -0.093790
  H     -4.640060   -2.761090    0.169230
  H     -5.325630   -0.213030   -0.119370
  H      2.764520   -4.348350    0.090870
  H      0.219650   -5.128820    0.196020
  H      4.083500   -2.046310   -0.031030
  H     -2.161040   -3.973850    0.222790
  Fe     0.009770   -0.003320   -0.098250

----------------------------
CARTESIAN COORDINATES (A.U.)
----------------------------
  NO LB      ZA    FRAG     MASS         X           Y           Z
   0 C     6.0000    0    12.011    7.392174    3.714691   -0.124457
   1 C     6.0000    0    12.011    8.282632    1.265209   -0.146416
   2 C     6.0000    0    12.011    6.022425   -0.328227   -0.282363
   3 C     6.0000    0    12.011    4.629942    3.543331   -0.218679
   4 N     7.0000    0    14.007    3.895406    1.249052   -0.355949
   5 C     6.0000    0    12.011    2.909252    5.710299    0.071469
   6 C     6.0000    0    12.011    0.365397    5.626508    0.104067
   7 N     7.0000    0    14.007   -1.127392    3.561246   -0.142429
   8 C     6.0000    0    12.011   -3.547583    4.398224   -0.080786
   9 C     6.0000    0    12.011   -1.111669    7.739033    0.481105
  10 C     6.0000    0    12.011   -3.585358    6.963112    0.348428
  11 C     6.0000    0    12.011   -5.671541    3.019877   -0.289260
  12 C     6.0000    0    12.011   -5.809812    0.260555   -0.487247
  13 N     7.0000    0    14.007   -3.882045   -1.189167   -0.468614
  14 C     6.0000    0    12.011   -7.481804   -3.660683    0.008466
  15 C     6.0000    0    12.011   -8.165204   -1.165375   -0.269078
  16 C     6.0000    0    12.011   -0.373826   -5.630798   -0.035489
  17 N     7.0000    0    14.007    1.145514   -3.575305   -0.228865
  18 C     6.0000    0    12.011    3.569088   -4.411774   -0.183020
  19 C     6.0000    0    12.011    3.580577   -7.011432    0.033505
  20 C     6.0000    0    12.011    1.091430   -7.777773    0.138460
  21 C     6.0000    0    12.011    5.931435   -2.862198   -0.202182
  22 C     6.0000    0    12.011   -3.193127   -5.689739    0.091349
  23 C     6.0000    0    12.011   -4.717758   -3.680128   -0.144356
  24 H     1.0000    0     1.008    8.518526    5.419243    0.006860
  25 H     1.0000    0     1.008   10.247059    0.709819   -0.013663
  26 H     1.0000    0     1.008    3.815754    7.535566    0.312787
  27 H     1.0000    0     1.008   -0.454838    9.632010    0.869746
  28 H     1.0000    0     1.008   -5.244784    8.121930    0.620813
  29 H     1.0000    0     1.008   -7.476324    3.990950   -0.177237
  30 H     1.0000    0     1.008   -8.768443   -5.217704    0.319798
  31 H     1.0000    0     1.008  -10.063982   -0.402568   -0.225577
  32 H     1.0000    0     1.008    5.224186   -8.217191    0.171719
  33 H     1.0000    0     1.008    0.415078   -9.692065    0.370424
  34 H     1.0000    0     1.008    7.716697   -3.866965   -0.058638
  35 H     1.0000    0     1.008   -4.083774   -7.509488    0.421012
  36 Fe   26.0000    0    55.850    0.018463   -0.006274   -0.185666

--------------------------------
INTERNAL COORDINATES (ANGSTROEM)
--------------------------------
 C      0   0   0     0.000000000000     0.00000000     0.00000000
 C      1   0   0     1.379251337719     0.00000000     0.00000000
 C      2   1   0     1.465166908649   105.21121779     0.00000000
 C      1   2   3     1.465368556405   106.40026880     0.61044206
 N      4   1   2     1.276853361197   111.37285693   358.33770189
 C      4   1   2     1.472283823928   124.41414233   172.46178009
 C      6   4   1     1.346990505015   126.42514018   182.98714520
 N      7   6   4     1.354785646588   127.44782740   359.36898139
 C      8   7   6     1.355526258174   106.55892863   182.08573487
 C      7   6   4     1.378569583772   122.80574028   177.46548573
 C     10   7   6     1.373701264650   106.88849296   178.87810089
 C      9   8   7     1.344412093445   127.63498039   179.15918925
 C     12   9   8     1.465751353641   126.02001363     3.74158698
 N     13  12   9     1.276439149392   123.93687041     0.45585404
 C     13  12   9     2.270990297579   157.13524673   149.25313465
 C     15  13  12     1.376941864459    38.16568484    28.92873246
 C     14  13  12     3.003904237655   164.74751287   159.58654061
 N     17  14  13     1.356474189692    74.52161036   191.26216653
 C     18  17  14     1.356954298125   107.29377460   180.92454701
 C     19  18  17     1.380456810335   109.31241902     0.16624615
 C     17  14  13     1.378578515646   175.98191050    22.23153916
 C      3   2   1     1.342454905686   127.05444786   184.13786588
 C     17  14  13     1.493744743455    53.30940550     8.04694029
 C     23  17  14     1.340667164698   125.47217997     1.02044450
 H      1   2   3     1.083381087983   126.51550572   178.56605344
 H      2   1   3     1.082559417954   125.63759420   182.14184219
 H      6   4   1     1.085984747637   115.58250338     1.86657922
 H     10   7   6     1.080069835890   126.66844076   356.99617363
 H     11  10   7     1.080706900552   126.71762466   177.79632729
 H     12   9   8     1.086138572098   118.29130952   179.27834259
 H     15  13  12     1.081475855348   163.53677050    18.95833996
 H     16  15  13     1.083085527602   126.78353805   183.18384105
 H     20  19  18     1.081181058288   126.67439714   181.87890573
 H     21  17  18     1.081358465357   126.40242368   177.96406184
 H     22   3   2     1.086724753560   117.37019250   358.67551231
 H     23  17  14     1.086221496519   117.32861750   181.67629500
 Fe    18  17  14     1.980713581061   125.82137579     7.30045079

---------------------------
INTERNAL COORDINATES (A.U.)
---------------------------
 C      0   0   0     0.000000000000     0.00000000     0.00000000
 C      1   0   0     2.606407298134     0.00000000     0.00000000
 C      2   1   0     2.768764197831   105.21121779     0.00000000
 C      1   2   3     2.769145256865   106.40026880     0.61044206
 N      4   1   2     2.412903165839   111.37285693   358.33770189
 C      4   1   2     2.782213218626   124.41414233   172.46178009
 C      6   4   1     2.545443159470   126.42514018   182.98714520
 N      7   6   4     2.560173842218   127.44782740   359.36898139
 C      8   7   6     2.561573395288   106.55892863   182.08573487
 C      7   6   4     2.605118969882   122.80574028   177.46548573
 C     10   7   6     2.595919180009   106.88849296   178.87810089
 C      9   8   7     2.540570667742   127.63498039   179.15918925
 C     12   9   8     2.769868638806   126.02001363     3.74158698
 N     13  12   9     2.412120418966   123.93687041     0.45585404
 C     13  12   9     4.291549715217   157.13524673   149.25313465
 C     15  13  12     2.602043026159    38.16568484    28.92873246
 C     14  13  12     5.676556341693   164.74751287   159.58654061
 N     17  14  13     2.563364726250    74.52161036   191.26216653
 C     18  17  14     2.564271999704   107.29377460   180.92454701
 C     19  18  17     2.608685311239   109.31241902     0.16624615
 C     17  14  13     2.605135848678   175.98191050    22.23153916
 C      3   2   1     2.536872118885   127.05444786   184.13786588
 C     17  14  13     2.822768479115    53.30940550     8.04694029
 C     23  17  14     2.533493778020   125.47217997     1.02044450
 H      1   2   3     2.047293554958   126.51550572   178.56605344
 H      2   1   3     2.045740823629   125.63759420   182.14184219
 H      6   4   1     2.052213758649   115.58250338     1.86657922
 H     10   7   6     2.041036195342   126.66844076   356.99617363
 H     11  10   7     2.042240073082   126.71762466   177.79632729
 H     12   9   8     2.052504444754   118.29130952   179.27834259
 H     15  13  12     2.043693187055   163.53677050    18.95833996
 H     16  15  13     2.046735026781   126.78353805   183.18384105
 H     20  19  18     2.043136101347   126.67439714   181.87890573
 H     21  17  18     2.043471352123   126.40242368   177.96406184
 H     22   3   2     2.053612167181   117.37019250   358.67551231
 H     23  17  14     2.052661149199   117.32861750   181.67629500
 Fe    18  17  14     3.743006217944   125.82137579     7.30045079

---------------------
BASIS SET INFORMATION
---------------------
There are 4 groups of distinct atoms

 Group   1 Type C   : 11s6p2d1f contracted to 5s3p2d1f pattern {62111/411/11/1}
 Group   2 Type N   : 11s6p2d1f contracted to 5s3p2d1f pattern {62111/411/11/1}
 Group   3 Type H   : 5s1p contracted to 3s1p pattern {311/1}
 Group   4 Type Fe  : 17s11p7d1f contracted to 6s4p4d1f pattern {842111/6311/4111/1}

Atom   0C    basis set group =>   1
Atom   1C    basis set group =>   1
Atom   2C    basis set group =>   1
Atom   3C    basis set group =>   1
Atom   4N    basis set group =>   2
Atom   5C    basis set group =>   1
Atom   6C    basis set group =>   1
Atom   7N    basis set group =>   2
Atom   8C    basis set group =>   1
Atom   9C    basis set group =>   1
Atom  10C    basis set group =>   1
Atom  11C    basis set group =>   1
Atom  12C    basis set group =>   1
Atom  13N    basis set group =>   2
Atom  14C    basis set group =>   1
Atom  15C    basis set group =>   1
Atom  16C    basis set group =>   1
Atom  17N    basis set group =>   2
Atom  18C    basis set group =>   1
Atom  19C    basis set group =>   1
Atom  20C    basis set group =>   1
Atom  21C    basis set group =>   1
Atom  22C    basis set group =>   1
Atom  23C    basis set group =>   1
Atom  24H    basis set group =>   3
Atom  25H    basis set group =>   3
Atom  26H    basis set group =>   3
Atom  27H    basis set group =>   3
Atom  28H    basis set group =>   3
Atom  29H    basis set group =>   3
Atom  30H    basis set group =>   3
Atom  31H    basis set group =>   3
Atom  32H    basis set group =>   3
Atom  33H    basis set group =>   3
Atom  34H    basis set group =>   3
Atom  35H    basis set group =>   3
Atom  36Fe   basis set group =>   4
---------------------------------
AUXILIARY/J BASIS SET INFORMATION
---------------------------------
There are 4 groups of distinct atoms

 Group   1 Type C   : 12s5p4d2f1g contracted to 6s4p3d1f1g pattern {711111/2111/211/2/1}
 Group   2 Type N   : 12s5p4d2f1g contracted to 6s4p3d1f1g pattern {711111/2111/211/2/1}
 Group   3 Type H   : 5s2p1d contracted to 3s1p1d pattern {311/2/1}
 Group   4 Type Fe  : 19s5p5d3f3g contracted to 8s5p5d2f3g pattern {121111111/11111/11111/21/111}

Atom   0C    basis set group =>   1
Atom   1C    basis set group =>   1
Atom   2C    basis set group =>   1
Atom   3C    basis set group =>   1
Atom   4N    basis set group =>   2
Atom   5C    basis set group =>   1
Atom   6C    basis set group =>   1
Atom   7N    basis set group =>   2
Atom   8C    basis set group =>   1
Atom   9C    basis set group =>   1
Atom  10C    basis set group =>   1
Atom  11C    basis set group =>   1
Atom  12C    basis set group =>   1
Atom  13N    basis set group =>   2
Atom  14C    basis set group =>   1
Atom  15C    basis set group =>   1
Atom  16C    basis set group =>   1
Atom  17N    basis set group =>   2
Atom  18C    basis set group =>   1
Atom  19C    basis set group =>   1
Atom  20C    basis set group =>   1
Atom  21C    basis set group =>   1
Atom  22C    basis set group =>   1
Atom  23C    basis set group =>   1
Atom  24H    basis set group =>   3
Atom  25H    basis set group =>   3
Atom  26H    basis set group =>   3
Atom  27H    basis set group =>   3
Atom  28H    basis set group =>   3
Atom  29H    basis set group =>   3
Atom  30H    basis set group =>   3
Atom  31H    basis set group =>   3
Atom  32H    basis set group =>   3
Atom  33H    basis set group =>   3
Atom  34H    basis set group =>   3
Atom  35H    basis set group =>   3
Atom  36Fe   basis set group =>   4
------------------------------------------------------------------------------
                           ORCA GTO INTEGRAL CALCULATION
                           -- RI-GTO INTEGRALS CHOSEN --
------------------------------------------------------------------------------
------------------------------------------------------------------------------
                   ___                                                        
                  /   \      - P O W E R E D   B Y -                         
                 /     \                                                     
                 |  |  |   _    _      __       _____    __    __             
                 |  |  |  | |  | |    /  \     |  _  \  |  |  /  |          
                  \  \/   | |  | |   /    \    | | | |  |  | /  /          
                 / \  \   | |__| |  /  /\  \   | |_| |  |  |/  /          
                |  |  |   |  __  | /  /__\  \  |    /   |      \           
                |  |  |   | |  | | |   __   |  |    \   |  |\   \          
                \     /   | |  | | |  |  |  |  | |\  \  |  | \   \       
                 \___/    |_|  |_| |__|  |__|  |_| \__\ |__|  \__/        
                                                                              
                      - O R C A' S   B I G   F R I E N D -                    
                                      &                                       
                       - I N T E G R A L  F E E D E R -                       
                                                                              
 v1 FN, 2020, v2 2021                                                         
------------------------------------------------------------------------------


Reading SHARK input file Fe_Porphyrin_opt.SHARKINP.tmp ... ok
----------------------
SHARK INTEGRAL PACKAGE
----------------------

Number of atoms                             ...     37
Number of basis functions                   ...    861
Number of shells                            ...    327
Maximum angular momentum                    ...      3
Integral batch strategy                     ... SHARK/LIBINT Hybrid
RI-J (if used) integral strategy            ... SPLIT-RIJ (Revised 2003 algorithm where possible)
Printlevel                                  ...      1
Contraction scheme used                     ... SEGMENTED contraction
Coulomb Range Separation                    ... NOT USED
Exchange Range Separation                   ... NOT USED
Finite Nucleus Model                        ... NOT USED
Auxiliary Coulomb fitting basis             ... AVAILABLE
   # of basis functions in Aux-J            ...   1397
   # of shells in Aux-J                     ...    443
   Maximum angular momentum in Aux-J        ...      4
Auxiliary J/K fitting basis                 ... NOT available
Auxiliary Correlation fitting basis         ... NOT available
Auxiliary 'external' fitting basis          ... NOT available
Integral threshold                          ...     2.500000e-11
Primitive cut-off                           ...     2.500000e-12
Primitive pair pre-selection threshold      ...     2.500000e-12

Calculating pre-screening integrals         ... done (  0.9 sec) Dimension = 327
Organizing shell pair data                  ... done (  0.9 sec)
Shell pair information
Total number of shell pairs                 ...     53628
Shell pairs after pre-screening             ...     38046
Total number of primitive shell pairs       ...    173789
Primitive shell pairs kept                  ...     80006
          la=0 lb=0:   8779 shell pairs
          la=1 lb=0:  10598 shell pairs
          la=1 lb=1:   3164 shell pairs
          la=2 lb=0:   5739 shell pairs
          la=2 lb=1:   3549 shell pairs
          la=2 lb=2:   1043 shell pairs
          la=3 lb=0:   2515 shell pairs
          la=3 lb=1:   1604 shell pairs
          la=3 lb=2:    862 shell pairs
          la=3 lb=3:    193 shell pairs

Calculating one electron integrals          ... done (  0.5 sec)
Calculating RI/J V-Matrix + Cholesky decomp.... done (  0.2 sec)
Calculating Nuclear repulsion               ... done (  0.0 sec) ENN=   2494.068583675063 Eh

SHARK setup successfully completed in   4.4 seconds

Maximum memory used throughout the entire GTOINT-calculation: 568.4 MB
-------------------------------------------------------------------------------
                                 ORCA SCF
-------------------------------------------------------------------------------

------------
SCF SETTINGS
------------
Hamiltonian:
 Density Functional     Method          .... DFT(GTOs)
 Exchange Functional    Exchange        .... B88
   X-Alpha parameter    XAlpha          ....  0.666667
   Becke's b parameter  XBeta           ....  0.004200
 Correlation Functional Correlation     .... LYP
 LDA part of GGA corr.  LDAOpt          .... VWN-5
 Gradients option       PostSCFGGA      .... off
 Hybrid DFT is turned on
   Fraction HF Exchange ScalHFX         ....  0.200000
   Scaling of DF-GGA-X  ScalDFX         ....  0.720000
   Scaling of DF-GGA-C  ScalDFC         ....  0.810000
   Scaling of DF-LDA-C  ScalLDAC        ....  1.000000
   Perturbative correction              ....  0.000000
   Density functional embedding theory  .... OFF
   NL short-range parameter             ....  4.800000
 RI-approximation to the Coulomb term is turned on
   Number of AuxJ basis functions       .... 1397
   RIJ-COSX (HFX calculated with COS-X)).... on


General Settings:
 Integral files         IntName         .... Fe_Porphyrin_opt
 Hartree-Fock type      HFTyp           .... RHF
 Total Charge           Charge          ....    0
 Multiplicity           Mult            ....    1
 Number of Electrons    NEL             ....  186
 Basis Dimension        Dim             ....  861
 Nuclear Repulsion      ENuc            ....   2494.0685836751 Eh

Convergence Acceleration:
 DIIS                   CNVDIIS         .... on
   Start iteration      DIISMaxIt       ....    12
   Startup error        DIISStart       ....  0.200000
   # of expansion vecs  DIISMaxEq       ....     5
   Bias factor          DIISBfac        ....   1.050
   Max. coefficient     DIISMaxC        ....  10.000
 Trust-Rad. Augm. Hess. CNVTRAH         .... auto
   Auto Start mean grad. ratio tolernc. ....  1.125000
   Auto Start start iteration           ....    20
   Auto Start num. interpolation iter.  ....    10
   Max. Number of Micro iterations      ....    16
   Max. Number of Macro iterations      .... Maxiter - #DIIS iter
   Number of Davidson start vectors     ....     2
   Converg. threshold I  (grad. norm)   ....   1.000e-05
   Converg. threshold II (energy diff.) ....   1.000e-08
   Grad. Scal. Fac. for Micro threshold ....   0.100
   Minimum threshold for Micro iter.    ....   0.010
   NR start threshold (gradient norm)   ....   0.001
   Initial trust radius                 ....   0.400
   Minimum AH scaling param. (alpha)    ....   1.000
   Maximum AH scaling param. (alpha)    .... 1000.000
   Orbital update algorithm             .... Taylor
   White noise on init. David. guess    .... on
   Maximum white noise                  ....   0.010
   Quad. conv. algorithm                .... NR
 SOSCF                  CNVSOSCF        .... off
 Level Shifting         CNVShift        .... on
   Level shift para.    LevelShift      ....    0.2500
   Turn off err/grad.   ShiftErr        ....    0.0010
 Zerner damping         CNVZerner       .... off
 Static damping         CNVDamp         .... on
   Fraction old density DampFac         ....    0.7000
   Max. Damping (<1)    DampMax         ....    0.9800
   Min. Damping (>=0)   DampMin         ....    0.0000
   Turn off err/grad.   DampErr         ....    0.1000
 Fernandez-Rico         CNVRico         .... off

SCF Procedure:
 Maximum # iterations   MaxIter         ....   125
 SCF integral mode      SCFMode         .... Direct
   Integral package                     .... SHARK and LIBINT hybrid scheme
 Reset frequency        DirectResetFreq ....    20
 Integral Threshold     Thresh          ....  2.500e-11 Eh
 Primitive CutOff       TCut            ....  2.500e-12 Eh

Convergence Tolerance:
 Convergence Check Mode ConvCheckMode   .... Total+1el-Energy
 Convergence forced     ConvForced      .... 0
 Energy Change          TolE            ....  1.000e-08 Eh
 1-El. energy change                    ....  1.000e-05 Eh
 DIIS Error             TolErr          ....  5.000e-07


Diagonalization of the overlap matrix:
Smallest eigenvalue                        ... 9.554e-06
Time for diagonalization                   ...    0.180 sec
Threshold for overlap eigenvalues          ... 1.000e-08
Number of eigenvalues below threshold      ... 0
Time for construction of square roots      ...    0.100 sec
Total time needed                          ...    0.282 sec

Time for model grid setup =    2.164 sec

------------------------------
INITIAL GUESS: MODEL POTENTIAL
------------------------------
Loading Hartree-Fock densities                     ... done
Calculating cut-offs                               ... done
Initializing the effective Hamiltonian             ... done
Setting up the integral package (SHARK)            ... done
Starting the Coulomb interaction                   ... done (   6.1 sec)
Reading the grid                                   ... done
Mapping shells                                     ... done
Starting the XC term evaluation                    ... done (   4.6 sec)
  promolecular density results
     # of electrons  =    185.995019101
     EX              =   -187.313019428
     EC              =     -6.707681629
     EX+EC           =   -194.020701057
Transforming the Hamiltonian                       ... done (   0.1 sec)
Diagonalizing the Hamiltonian                      ... done (   0.2 sec)
Back transforming the eigenvectors                 ... done (   0.0 sec)
Now organizing SCF variables                       ... done
                      ------------------
                      INITIAL GUESS DONE (  13.2 sec)
                      ------------------
-------------------
DFT GRID GENERATION
-------------------

General Integration Accuracy     IntAcc      ... 4.388
Radial Grid Type                 RadialGrid  ... OptM3 with GC (2021)
Angular Grid (max. ang.)         AngularGrid ... 4 (Lebedev-302)
Angular grid pruning method      GridPruning ... 4 (adaptive)
Weight generation scheme         WeightScheme... Becke
Basis function cutoff            BFCut       ... 1.0000e-11
Integration weight cutoff        WCut        ... 1.0000e-14
Angular grids for H and He will be reduced by one unit
Partially contracted basis set               ... off
Rotationally invariant grid construction     ... off

Total number of grid points                  ...   191981
Total number of batches                      ...     3018
Average number of points per batch           ...       63
Average number of grid points per atom       ...     5189
Time for grid setup =    6.268 sec

--------------------
COSX GRID GENERATION
--------------------

GRIDX 1
-------
General Integration Accuracy     IntAcc      ... 3.816
Radial Grid Type                 RadialGrid  ... OptM3 with GC (2021)
Angular Grid (max. ang.)         AngularGrid ... 1 (Lebedev-50)
Angular grid pruning method      GridPruning ... 4 (adaptive)
Weight generation scheme         WeightScheme... Becke
Basis function cutoff            BFCut       ... 1.0000e-11
Integration weight cutoff        WCut        ... 1.0000e-14
Angular grids for H and He will be reduced by one unit
Partially contracted basis set               ... on
Rotationally invariant grid construction     ... off

Total number of grid points                  ...    24253
Total number of batches                      ...      393
Average number of points per batch           ...       61
Average number of grid points per atom       ...      655
UseSFitting                                  ... on

GRIDX 2
-------
General Integration Accuracy     IntAcc      ... 4.020
Radial Grid Type                 RadialGrid  ... OptM3 with GC (2021)
Angular Grid (max. ang.)         AngularGrid ... 2 (Lebedev-110)
Angular grid pruning method      GridPruning ... 4 (adaptive)
Weight generation scheme         WeightScheme... Becke
Basis function cutoff            BFCut       ... 1.0000e-11
Integration weight cutoff        WCut        ... 1.0000e-14
Angular grids for H and He will be reduced by one unit
Partially contracted basis set               ... on
Rotationally invariant grid construction     ... off

Total number of grid points                  ...    53426
Total number of batches                      ...      855
Average number of points per batch           ...       62
Average number of grid points per atom       ...     1444
UseSFitting                                  ... on

GRIDX 3
-------
General Integration Accuracy     IntAcc      ... 4.338
Radial Grid Type                 RadialGrid  ... OptM3 with GC (2021)
Angular Grid (max. ang.)         AngularGrid ... 3 (Lebedev-194)
Angular grid pruning method      GridPruning ... 4 (adaptive)
Weight generation scheme         WeightScheme... Becke
Basis function cutoff            BFCut       ... 1.0000e-11
Integration weight cutoff        WCut        ... 1.0000e-14
Angular grids for H and He will be reduced by one unit
Partially contracted basis set               ... on
Rotationally invariant grid construction     ... off

Total number of grid points                  ...   117205
Total number of batches                      ...     1850
Average number of points per batch           ...       63
Average number of grid points per atom       ...     3168
UseSFitting                                  ... on

Time for X-Grid setup             =   12.754 sec


--------------------
CPCM SOLVATION MODEL
--------------------
CPCM parameters:
  Epsilon                                         ...       9.0800
  Refrac                                          ...       1.4240
  Rsolv                                           ...       1.3000
  Surface type                                    ... GAUSSIAN VDW
  Epsilon function type                           ...         CPCM
Radii:
 Radius for C  used is    3.8550 Bohr (=   2.0400 Ang.)
 Radius for N  used is    3.5149 Bohr (=   1.8600 Ang.)
 Radius for H  used is    2.4944 Bohr (=   1.3200 Ang.)
 Radius for Fe used is    4.5353 Bohr (=   2.4000 Ang.)
Calculating surface                               ...        done! (  0.0s)
GEPOL surface points                              ...         1872
GEPOL Volume                                      ...    2512.4862
GEPOL Surface-area                                ...    1171.0153
Calculating surface distance matrix               ...        done! (  0.0s)
Performing Cholesky decomposition & store         ...        done! (  0.1s)
Overall time for CPCM initialization              ...                 0.2s
--------------
SCF ITERATIONS
--------------
ITER       Energy         Delta-E        Max-DP      RMS-DP      [F,P]     Damp
               ***  Starting incremental Fock matrix formation  ***
  0  -2251.1071364006   0.000000000000 0.08442919  0.00078518  0.2313195 0.7000
  1  -2251.3928832201  -0.285746819499 0.04049970  0.00060388  0.1063378 0.7000
                               ***Turning on DIIS***
  2  -2251.5104507090  -0.117567488875 0.16915687  0.00137085  0.0877865 0.0000
  3  -2251.6960896040  -0.185638894995 0.01886707  0.00016151  0.2271272 0.7000
  4  -2251.7253434293  -0.029253825307 0.01545713  0.00016645  0.1551846 0.7000
  5  -2251.7439662736  -0.018622844341 0.01029456  0.00013144  0.1003222 0.7000
  6  -2251.7541886805  -0.010222406844 0.02515903  0.00032679  0.0684996 0.0000
  7  -2251.7713324440  -0.017143763505 0.00469307  0.00003849  0.0036198 0.0000
  8  -2251.7718695711  -0.000537127145 0.00251138  0.00002476  0.0040560 0.0000
  9  -2251.7721863514  -0.000316780297 0.00273049  0.00002319  0.0040651 0.0000
 10  -2251.7724153622  -0.000229010780 0.00191228  0.00001731  0.0020911 0.0000
 11  -2251.7725548515  -0.000139489271 0.00172936  0.00001489  0.0017258 0.0000
 12  -2251.7726448247  -0.000089973217 0.00139938  0.00001136  0.0013638 0.0000
 13  -2251.7726981756  -0.000053350912 0.00115834  0.00000935  0.0010692 0.0000
 14  -2251.7727305316  -0.000032356029 0.00344171  0.00002567  0.0008335 0.0000
               *** Restarting incremental Fock matrix formation ***
                                   *** Resetting DIIS ***
 15  -2251.7727027040   0.000027827615 0.00235081  0.00003022  0.0004226 0.0000
 16  -2251.7727017522   0.000000951768 0.00036425  0.00000190  0.0013806 0.0000
 17  -2251.7727040078  -0.000002255536 0.00011316  0.00000134  0.0001556 0.0000
 18  -2251.7727043146  -0.000000306833 0.00014350  0.00000136  0.0000444 0.0000
 19  -2251.7727043651  -0.000000050520 0.00008004  0.00000075  0.0000697 0.0000
 20  -2251.7727043632   0.000000001908 0.00007374  0.00000072  0.0000151 0.0000
 21  -2251.7727043682  -0.000000004954 0.00008366  0.00000063  0.0000143 0.0000
 22  -2251.7727043949  -0.000000026735 0.00005881  0.00000067  0.0000099 0.0000
 23  -2251.7727043606   0.000000034284 0.00005309  0.00000045  0.0000097 0.0000
 24  -2251.7727043769  -0.000000016231 0.00007319  0.00000052  0.0000094 0.0000
 25  -2251.7727044025  -0.000000025596 0.00006033  0.00000048  0.0000091 0.0000
 26  -2251.7727043795   0.000000022985 0.00002981  0.00000035  0.0000088 0.0000
 27  -2251.7727043561   0.000000023410 0.00002658  0.00000031  0.0000084 0.0000
 28  -2251.7727043545   0.000000001565 0.00004986  0.00000055  0.0000080 0.0000

 WARNING: the maximum gradient error descreased on average only by a factor   1.1
          during the last 20 iterations

                      *** Initiating the TRAH-SCF procedure ***


TRAH GRIDX
----------

General Integration Accuracy     IntAcc      ... 3.067
Radial Grid Type                 RadialGrid  ... OptM3 with GC (2021)
Angular Grid (max. ang.)         AngularGrid ... 1 (Lebedev-50)
Angular grid pruning method      GridPruning ... 4 (adaptive)
Weight generation scheme         WeightScheme... Becke
Basis function cutoff            BFCut       ... 1.0000e-11
Integration weight cutoff        WCut        ... 1.0000e-14
Angular grids for H and He will be reduced by one unit
Partially contracted basis set               ... on
Rotationally invariant grid construction     ... off

Total number of grid points                  ...    13182
Total number of batches                      ...      231
Average number of points per batch           ...       57
Average number of grid points per atom       ...      356


TRAH GRID
---------

General Integration Accuracy     IntAcc      ... 3.467
Radial Grid Type                 RadialGrid  ... OptM3 with GC (2021)
Angular Grid (max. ang.)         AngularGrid ... 1 (Lebedev-50)
Angular grid pruning method      GridPruning ... 4 (adaptive)
Weight generation scheme         WeightScheme... Becke
Basis function cutoff            BFCut       ... 1.0000e-11
Integration weight cutoff        WCut        ... 1.0000e-14
Angular grids for H and He will be reduced by one unit
Partially contracted basis set               ... off
Rotationally invariant grid construction     ... off

Total number of grid points                  ...    31181
Total number of batches                      ...      504
Average number of points per batch           ...       61
Average number of grid points per atom       ...      843

 --------------------------------------------------------------------------------------------
   Iter.        energy            ||Error||_2        Shift      TRadius  Mac/Mic        Rej.
 --------------------------------------------------------------------------------------------
    0      -2251.772704364831     5.616642e-05                     0.400 (TRAH MAcro)   No
    0     dE    -1.772469e-10     8.519529e-05    -3.8766e-10      0.000 (TRAH MIcro)
    0     dE    -2.728869e-09     2.637270e-04    -5.4578e-09      0.000 (TRAH MIcro)
    0     dE    -5.747894e-09     3.235398e-04    -1.1496e-08      0.000 (TRAH MIcro)
    0     dE    -1.109687e-08     7.499857e-05    -2.2194e-08      0.001 (TRAH MIcro)
    0     dE    -1.141165e-08     4.029697e-05    -2.2823e-08      0.001 (TRAH MIcro)
    0     dE    -1.154844e-08     2.679419e-05    -2.3097e-08      0.001 (TRAH MIcro)
    0     dE    -1.165064e-08     2.893453e-05    -2.3301e-08      0.001 (TRAH MIcro)
    0     dE    -1.173812e-08     2.343149e-05    -2.3476e-08      0.001 (TRAH MIcro)
    0     dE    -1.184391e-08     2.956723e-05    -2.3688e-08      0.001 (TRAH MIcro)
    0     dE    -1.215146e-08     6.378198e-05    -2.4303e-08      0.001 (TRAH MIcro)
    0     dE    -1.317945e-08     9.129040e-05    -2.6359e-08      0.001 (TRAH MIcro)
    0     dE    -1.386160e-08     5.834382e-05    -2.7723e-08      0.002 (TRAH MIcro)
    0     dE    -1.400007e-08     2.888852e-05    -2.8000e-08      0.002 (TRAH MIcro)
    0     dE    -1.405295e-08     1.147925e-05    -2.8106e-08      0.002 (TRAH MIcro)
    1      -2251.772704378100     1.328201e-05                           (NR   MAcro)
    1     dE    -1.160072e-11     6.424311e-06                           (NR   MIcro)
    1     dE    -1.824302e-11     6.247020e-06                           (NR   MIcro)
    1     dE    -2.113875e-11     4.798821e-06                           (NR   MIcro)
    1     dE    -2.298896e-11     3.636372e-06                           (NR   MIcro)
    1     dE    -2.442328e-11     4.096604e-06                           (NR   MIcro)
    1     dE    -2.770533e-11     6.083020e-06                           (NR   MIcro)
    1     dE    -3.567006e-11     9.111026e-06                           (NR   MIcro)
    1     dE    -5.048567e-11     1.098995e-05                           (NR   MIcro)
    1     dE    -5.932182e-11     7.075352e-06                           (NR   MIcro)
    1     dE    -6.327275e-11     4.120239e-06                           (NR   MIcro)
    1     dE    -6.502804e-11     2.868902e-06                           (NR   MIcro)
    1     dE    -6.614590e-11     3.095565e-06                           (NR   MIcro)
    1     dE    -6.877992e-11     5.604316e-06                           (NR   MIcro)
    1     dE    -7.283013e-11     6.550457e-06                           (NR   MIcro)
    1     dE    -7.681060e-11     3.578214e-06                           (NR   MIcro)
    2      -2251.772704377880     3.635906e-06                           (NR   MAcro)

               *****************************************************
               *                     SUCCESS                       *
               *           SCF CONVERGED AFTER  61 CYCLES          *
               *****************************************************

Old exchange energy                            =    -37.782133112 Eh
New exchange energy                            =    -37.782121707 Eh
Exchange energy change after final integration =      0.000011405 Eh
Total energy after final integration           =  -2251.772692973 Eh
Final COS-X integration done in                =   426.786 sec

----------------
TOTAL SCF ENERGY
----------------

Total Energy       :        -2251.77269297 Eh          -61273.85008 eV

Components:
Nuclear Repulsion  :         2494.06858368 Eh           67867.05646 eV
Electronic Energy  :        -4745.84127665 Eh         -129140.90653 eV
One Electron Energy:        -8050.34381373 Eh         -219060.99202 eV
Two Electron Energy:         3304.50253709 Eh           89920.08548 eV
Max COSX asymmetry :            0.00000196 Eh               0.00005 eV
CPCM Dielectric    :           -0.01233529 Eh              -0.33566 eV

Virial components:
Potential Energy   :        -4497.45723656 Eh         -122382.03319 eV
Kinetic Energy     :         2245.68454358 Eh           61108.18311 eV
Virial Ratio       :            2.00271104


DFT components:
N(Alpha)           :       93.000019793934 electrons
N(Beta)            :       93.000019793934 electrons
N(Total)           :      186.000039587867 electrons
E(X)               :     -150.406025452565 Eh       
E(C)               :       -7.877840704582 Eh       
E(XC)              :     -158.283866157147 Eh       
DFET-embed. en.    :        0.000000000000 Eh       
CPCM Solvation Model Properties:
Surface-charge          :           -0.03837418
Charge-correction       :            0.00010387 Eh               0.00283 eV
Free-energy (cav+disp)  :  This term is not implemented in the current solvation scheme

---------------
SCF CONVERGENCE
---------------

  Last Energy change         ...    2.1964e-10  Tolerance :   1.0000e-08
  Last Orbital Gradient      ...    3.6359e-06  Tolerance :   1.0000e-05
  Last Orbital Rotation      ...    1.6714e-04

             **** THE GBW FILE WAS UPDATED (Fe_Porphyrin_opt.gbw) ****
             **** DENSITY Fe_Porphyrin_opt.scfp WAS UPDATED ****
             **** ENERGY FILE WAS UPDATED (Fe_Porphyrin_opt.en.tmp) ****
             **** THE GBW FILE WAS UPDATED (Fe_Porphyrin_opt.gbw) ****
             **** DENSITY Fe_Porphyrin_opt.scfp WAS UPDATED ****
----------------
ORBITAL ENERGIES
----------------

  NO   OCC          E(Eh)            E(eV) 
   0   2.0000    -256.069830     -6968.0143 
   1   2.0000     -30.005742      -816.4978 
   2   2.0000     -25.871126      -703.9891 
   3   2.0000     -25.865605      -703.8389 
   4   2.0000     -25.864775      -703.8163 
   5   2.0000     -14.322510      -389.7353 
   6   2.0000     -14.322054      -389.7229 
   7   2.0000     -14.318582      -389.6284 
   8   2.0000     -14.310987      -389.4218 
   9   2.0000     -10.214776      -277.9582 
  10   2.0000     -10.213537      -277.9245 
  11   2.0000     -10.207559      -277.7618 
  12   2.0000     -10.207086      -277.7489 
  13   2.0000     -10.202812      -277.6326 
  14   2.0000     -10.202375      -277.6208 
  15   2.0000     -10.197927      -277.4997 
  16   2.0000     -10.197276      -277.4820 
  17   2.0000     -10.192826      -277.3609 
  18   2.0000     -10.192033      -277.3393 
  19   2.0000     -10.181783      -277.0604 
  20   2.0000     -10.181269      -277.0464 
  21   2.0000     -10.176599      -276.9193 
  22   2.0000     -10.176540      -276.9177 
  23   2.0000     -10.175957      -276.9019 
  24   2.0000     -10.175599      -276.8921 
  25   2.0000     -10.167170      -276.6627 
  26   2.0000     -10.166466      -276.6436 
  27   2.0000     -10.156744      -276.3791 
  28   2.0000     -10.156002      -276.3589 
  29   2.0000      -3.426910       -93.2510 
  30   2.0000      -2.210241       -60.1437 
  31   2.0000      -2.193047       -59.6759 
  32   2.0000      -2.190791       -59.6144 
  33   2.0000      -0.980522       -26.6814 
  34   2.0000      -0.973906       -26.5013 
  35   2.0000      -0.969504       -26.3815 
  36   2.0000      -0.962340       -26.1866 
  37   2.0000      -0.818005       -22.2591 
  38   2.0000      -0.793983       -21.6054 
  39   2.0000      -0.791951       -21.5501 
  40   2.0000      -0.773487       -21.0476 
  41   2.0000      -0.768389       -20.9089 
  42   2.0000      -0.766033       -20.8448 
  43   2.0000      -0.760762       -20.7014 
  44   2.0000      -0.738593       -20.0981 
  45   2.0000      -0.717950       -19.5364 
  46   2.0000      -0.659226       -17.9385 
  47   2.0000      -0.649678       -17.6786 
  48   2.0000      -0.597269       -16.2525 
  49   2.0000      -0.576890       -15.6980 
  50   2.0000      -0.576682       -15.6923 
  51   2.0000      -0.571949       -15.5635 
  52   2.0000      -0.571013       -15.5381 
  53   2.0000      -0.553225       -15.0540 
  54   2.0000      -0.542239       -14.7551 
  55   2.0000      -0.527021       -14.3410 
  56   2.0000      -0.524274       -14.2662 
  57   2.0000      -0.514026       -13.9874 
  58   2.0000      -0.498621       -13.5682 
  59   2.0000      -0.490466       -13.3462 
  60   2.0000      -0.445636       -12.1264 
  61   2.0000      -0.440804       -11.9949 
  62   2.0000      -0.439984       -11.9726 
  63   2.0000      -0.427246       -11.6259 
  64   2.0000      -0.426531       -11.6065 
  65   2.0000      -0.422088       -11.4856 
  66   2.0000      -0.421444       -11.4681 
  67   2.0000      -0.413616       -11.2551 
  68   2.0000      -0.413072       -11.2403 
  69   2.0000      -0.404481       -11.0065 
  70   2.0000      -0.395631       -10.7657 
  71   2.0000      -0.395334       -10.7576 
  72   2.0000      -0.385447       -10.4885 
  73   2.0000      -0.380570       -10.3558 
  74   2.0000      -0.377820       -10.2810 
  75   2.0000      -0.376237       -10.2379 
  76   2.0000      -0.367069        -9.9884 
  77   2.0000      -0.366966        -9.9857 
  78   2.0000      -0.328965        -8.9516 
  79   2.0000      -0.325787        -8.8651 
  80   2.0000      -0.316932        -8.6242 
  81   2.0000      -0.314645        -8.5619 
  82   2.0000      -0.289765        -7.8849 
  83   2.0000      -0.287886        -7.8338 
  84   2.0000      -0.281055        -7.6479 
  85   2.0000      -0.275749        -7.5035 
  86   2.0000      -0.263912        -7.1814 
  87   2.0000      -0.251147        -6.8340 
  88   2.0000      -0.239756        -6.5241 
  89   2.0000      -0.233850        -6.3634 
  90   2.0000      -0.218925        -5.9573 
  91   2.0000      -0.205393        -5.5890 
  92   2.0000      -0.197443        -5.3727 
  93   0.0000      -0.108355        -2.9485 
  94   0.0000      -0.091335        -2.4854 
  95   0.0000      -0.082946        -2.2571 
  96   0.0000      -0.032882        -0.8948 
  97   0.0000      -0.017456        -0.4750 
  98   0.0000       0.032913         0.8956 
  99   0.0000       0.042575         1.1585 
 100   0.0000       0.051118         1.3910 
 101   0.0000       0.058996         1.6054 
 102   0.0000       0.065123         1.7721 
 103   0.0000       0.066248         1.8027 
 104   0.0000       0.068728         1.8702 
 105   0.0000       0.069419         1.8890 
 106   0.0000       0.069898         1.9020 
 107   0.0000       0.077038         2.0963 
 108   0.0000       0.085696         2.3319 
 109   0.0000       0.087589         2.3834 
 110   0.0000       0.091016         2.4767 
 111   0.0000       0.092923         2.5286 
 112   0.0000       0.096540         2.6270 
 113   0.0000       0.097895         2.6639 
 114   0.0000       0.104091         2.8325 
 115   0.0000       0.106462         2.8970 
 116   0.0000       0.109475         2.9790 
 117   0.0000       0.110827         3.0158 
 118   0.0000       0.128938         3.5086 
 119   0.0000       0.129147         3.5143 
 120   0.0000       0.133450         3.6314 
 121   0.0000       0.143858         3.9146 
 122   0.0000       0.144843         3.9414 
 123   0.0000       0.147377         4.0103 
 124   0.0000       0.161450         4.3933 
 125   0.0000       0.162967         4.4346 
 126   0.0000       0.176394         4.7999 
 127   0.0000       0.178223         4.8497 
 128   0.0000       0.181598         4.9415 
 129   0.0000       0.184698         5.0259 
 130   0.0000       0.191036         5.1984 
 131   0.0000       0.195422         5.3177 
 132   0.0000       0.199378         5.4254 
 133   0.0000       0.200614         5.4590 
 134   0.0000       0.203940         5.5495 
 135   0.0000       0.210178         5.7192 
 136   0.0000       0.212273         5.7762 
 137   0.0000       0.216489         5.8910 
 138   0.0000       0.222701         6.0600 
 139   0.0000       0.230773         6.2796 
 140   0.0000       0.235013         6.3950 
 141   0.0000       0.238379         6.4866 
 142   0.0000       0.241393         6.5686 
 143   0.0000       0.246390         6.7046 
 144   0.0000       0.252012         6.8576 
 145   0.0000       0.255127         6.9424 
 146   0.0000       0.261633         7.1194 
 147   0.0000       0.263079         7.1588 
 148   0.0000       0.267950         7.2913 
 149   0.0000       0.270541         7.3618 
 150   0.0000       0.274878         7.4798 
 151   0.0000       0.278793         7.5863 
 152   0.0000       0.282355         7.6833 
 153   0.0000       0.286403         7.7934 
 154   0.0000       0.288986         7.8637 
 155   0.0000       0.294635         8.0174 
 156   0.0000       0.298572         8.1245 
 157   0.0000       0.300938         8.1889 
 158   0.0000       0.302543         8.2326 
 159   0.0000       0.314515         8.5584 
 160   0.0000       0.323817         8.8115 
 161   0.0000       0.325585         8.8596 
 162   0.0000       0.329370         8.9626 
 163   0.0000       0.331537         9.0216 
 164   0.0000       0.334951         9.1145 
 165   0.0000       0.340864         9.2754 
 166   0.0000       0.348823         9.4920 
 167   0.0000       0.350378         9.5343 
 168   0.0000       0.357308         9.7228 
 169   0.0000       0.360909         9.8208 
 170   0.0000       0.363077         9.8798 
 171   0.0000       0.367633        10.0038 
 172   0.0000       0.371517        10.1095 
 173   0.0000       0.373859        10.1732 
 174   0.0000       0.377026        10.2594 
 175   0.0000       0.378776        10.3070 
 176   0.0000       0.382046        10.3960 
 177   0.0000       0.389250        10.5920 
 178   0.0000       0.392231        10.6731 
 179   0.0000       0.397136        10.8066 
 180   0.0000       0.398521        10.8443 
 181   0.0000       0.401052        10.9132 
 182   0.0000       0.402141        10.9428 
 183   0.0000       0.407221        11.0811 
 184   0.0000       0.408795        11.1239 
 185   0.0000       0.412887        11.2352 
 186   0.0000       0.419036        11.4025 
 187   0.0000       0.423013        11.5108 
 188   0.0000       0.428880        11.6704 
 189   0.0000       0.434582        11.8256 
 190   0.0000       0.438677        11.9370 
 191   0.0000       0.444605        12.0983 
 192   0.0000       0.449768        12.2388 
 193   0.0000       0.451619        12.2892 
[...]
      f-1     :     0.004463
      f+2     :     0.011291
      f-2     :     0.007914
      f+3     :     0.028805
      f-3     :     0.016136
  9 C s       :     2.763082  s :     2.763082
      pz      :     0.903850  p :     2.932012
      px      :     1.044249
      py      :     0.983913
      dz2     :     0.026836  d :     0.372354
      dxz     :     0.068155
      dyz     :     0.022354
      dx2y2   :     0.116935
      dxy     :     0.138074
      f0      :     0.003007  f :     0.047659
      f+1     :     0.003952
      f-1     :     0.003839
      f+2     :     0.003831
      f-2     :     0.005965
      f+3     :     0.013254
      f-3     :     0.013811
 10 C s       :     2.763028  s :     2.763028
      pz      :     0.903875  p :     2.932010
      px      :     1.035823
      py      :     0.992312
      dz2     :     0.026852  d :     0.372421
      dxz     :     0.038710
      dyz     :     0.051792
      dx2y2   :     0.119968
      dxy     :     0.135098
      f0      :     0.003006  f :     0.047659
      f+1     :     0.004059
      f-1     :     0.003734
      f+2     :     0.008464
      f-2     :     0.001332
      f+3     :     0.016017
      f-3     :     0.011048
 11 C s       :     2.749140  s :     2.749140
      pz      :     0.892366  p :     2.921217
      px      :     1.002664
      py      :     1.026186
      dz2     :     0.024983  d :     0.375699
      dxz     :     0.027504
      dyz     :     0.070987
      dx2y2   :     0.116182
      dxy     :     0.136043
      f0      :     0.003254  f :     0.041992
      f+1     :     0.003515
      f-1     :     0.004369
      f+2     :     0.005096
      f-2     :     0.003443
      f+3     :     0.013225
      f-3     :     0.009090
 12 C s       :     2.697570  s :     2.697570
      pz      :     0.848126  p :     2.788554
      px      :     0.941092
      py      :     0.999336
      dz2     :     0.043214  d :     0.633501
      dxz     :     0.099828
      dyz     :     0.097336
      dx2y2   :     0.196613
      dxy     :     0.196509
      f0      :     0.004873  f :     0.080011
      f+1     :     0.005448
      f-1     :     0.005601
      f+2     :     0.005435
      f-2     :     0.013752
      f+3     :     0.030675
      f-3     :     0.014228
 13 N s       :     2.965056  s :     2.965056
      pz      :     1.204145  p :     3.590834
      px      :     1.262764
      py      :     1.123925
      dz2     :     0.015125  d :     0.226808
      dxz     :     0.024784
      dyz     :     0.040772
      dx2y2   :     0.069861
      dxy     :     0.076267
      f0      :     0.001151  f :     0.018873
      f+1     :     0.001032
      f-1     :     0.001656
      f+2     :     0.001543
      f-2     :     0.002572
      f+3     :     0.005914
      f-3     :     0.005004
 14 C s       :     2.763026  s :     2.763026
      pz      :     0.903891  p :     2.932042
      px      :     0.992383
      py      :     1.035768
      dz2     :     0.026838  d :     0.372358
      dxz     :     0.051801
      dyz     :     0.038691
      dx2y2   :     0.119990
      dxy     :     0.135038
      f0      :     0.003005  f :     0.047647
      f+1     :     0.003731
      f-1     :     0.004060
      f+2     :     0.008463
      f-2     :     0.001329
      f+3     :     0.011046
      f-3     :     0.016013
 15 C s       :     2.763096  s :     2.763096
      pz      :     0.903884  p :     2.932003
      px      :     0.983966
      py      :     1.044152
      dz2     :     0.026840  d :     0.372253
      dxz     :     0.022344
      dyz     :     0.068118
      dx2y2   :     0.116877
      dxy     :     0.138074
      f0      :     0.003004  f :     0.047635
      f+1     :     0.003840
      f-1     :     0.003951
      f+2     :     0.003828
      f-2     :     0.005961
      f+3     :     0.013805
      f-3     :     0.013247
 16 C s       :     2.697629  s :     2.697629
      pz      :     0.848170  p :     2.788531
      px      :     0.999319
      py      :     0.941042
      dz2     :     0.043215  d :     0.633388
      dxz     :     0.097328
      dyz     :     0.099784
      dx2y2   :     0.196597
      dxy     :     0.196463
      f0      :     0.004872  f :     0.079982
      f+1     :     0.005602
      f-1     :     0.005446
      f+2     :     0.005436
      f-2     :     0.013743
      f+3     :     0.014223
      f-3     :     0.030662
 17 N s       :     2.965098  s :     2.965098
      pz      :     1.204188  p :     3.590813
      px      :     1.123971
      py      :     1.262654
      dz2     :     0.015125  d :     0.226791
      dxz     :     0.040778
      dyz     :     0.024776
      dx2y2   :     0.069841
      dxy     :     0.076271
      f0      :     0.001151  f :     0.018871
      f+1     :     0.001657
      f-1     :     0.001032
      f+2     :     0.001544
      f-2     :     0.002571
      f+3     :     0.005003
      f-3     :     0.005914
 18 C s       :     2.697542  s :     2.697542
      pz      :     0.848066  p :     2.788547
      px      :     0.947830
      py      :     0.992651
      dz2     :     0.043222  d :     0.633633
      dxz     :     0.115372
      dyz     :     0.081840
      dx2y2   :     0.196976
      dxy     :     0.196223
      f0      :     0.004876  f :     0.080048
      f+1     :     0.006590
      f-1     :     0.004461
      f+2     :     0.011285
      f-2     :     0.007914
      f+3     :     0.028792
      f-3     :     0.016130
 19 C s       :     2.763065  s :     2.763065
      pz      :     0.903900  p :     2.932021
      px      :     1.035849
      py      :     0.992272
      dz2     :     0.026833  d :     0.372345
      dxz     :     0.038714
      dyz     :     0.051779
      dx2y2   :     0.119980
      dxy     :     0.135039
      f0      :     0.003006  f :     0.047644
      f+1     :     0.004058
      f-1     :     0.003732
      f+2     :     0.008461
      f-2     :     0.001331
      f+3     :     0.016009
      f-3     :     0.011046
 20 C s       :     2.763091  s :     2.763091
      pz      :     0.903846  p :     2.932018
      px      :     1.044239
      py      :     0.983932
      dz2     :     0.026842  d :     0.372311
      dxz     :     0.068147
      dyz     :     0.022343
      dx2y2   :     0.116897
      dxy     :     0.138082
      f0      :     0.003006  f :     0.047650
      f+1     :     0.003952
      f-1     :     0.003840
      f+2     :     0.003831
      f-2     :     0.005963
      f+3     :     0.013253
      f-3     :     0.013806
 21 C s       :     2.749169  s :     2.749169
      pz      :     0.892424  p :     2.921245
      px      :     1.002671
      py      :     1.026150
      dz2     :     0.024981  d :     0.375655
      dxz     :     0.027520
      dyz     :     0.070974
      dx2y2   :     0.116137
      dxy     :     0.136043
      f0      :     0.003254  f :     0.041982
      f+1     :     0.003513
      f-1     :     0.004370
      f+2     :     0.005095
      f-2     :     0.003443
      f+3     :     0.013219
      f-3     :     0.009088
 22 C s       :     2.749213  s :     2.749213
      pz      :     0.892406  p :     2.921221
      px      :     1.026161
      py      :     1.002655
      dz2     :     0.024974  d :     0.375625
      dxz     :     0.070973
      dyz     :     0.027499
      dx2y2   :     0.116127
      dxy     :     0.136052
      f0      :     0.003253  f :     0.041977
      f+1     :     0.004368
      f-1     :     0.003515
      f+2     :     0.005097
      f-2     :     0.003439
      f+3     :     0.009086
      f-3     :     0.013220
 23 C s       :     2.697522  s :     2.697522
      pz      :     0.848049  p :     2.788564
      px      :     0.992728
      py      :     0.947787
      dz2     :     0.043219  d :     0.633643
      dxz     :     0.081882
      dyz     :     0.115337
      dx2y2   :     0.196961
      dxy     :     0.196243
      f0      :     0.004876  f :     0.080050
      f+1     :     0.004462
      f-1     :     0.006588
      f+2     :     0.011290
      f-2     :     0.007908
      f+3     :     0.016124
      f-3     :     0.028801
 24 H s       :     0.792250  s :     0.792250
      pz      :     0.013971  p :     0.061328
      px      :     0.019207
      py      :     0.028150
 25 H s       :     0.792211  s :     0.792211
      pz      :     0.013966  p :     0.061321
      px      :     0.033531
      py      :     0.013824
 26 H s       :     0.773815  s :     0.773815
      pz      :     0.014535  p :     0.059566
      px      :     0.015464
      py      :     0.029568
 27 H s       :     0.792187  s :     0.792187
      pz      :     0.013951  p :     0.061275
      px      :     0.013807
      py      :     0.033517
 28 H s       :     0.792234  s :     0.792234
      pz      :     0.013963  p :     0.061302
      px      :     0.028125
      py      :     0.019215
 29 H s       :     0.773811  s :     0.773811
      pz      :     0.014537  p :     0.059576
      px      :     0.029586
      py      :     0.015453
 30 H s       :     0.792256  s :     0.792256
      pz      :     0.013975  p :     0.061341
      px      :     0.019209
      py      :     0.028158
 31 H s       :     0.792231  s :     0.792231
      pz      :     0.013968  p :     0.061333
      px      :     0.033533
      py      :     0.013831
 32 H s       :     0.792242  s :     0.792242
      pz      :     0.013969  p :     0.061319
      px      :     0.028137
      py      :     0.019213
 33 H s       :     0.792195  s :     0.792195
      pz      :     0.013957  p :     0.061300
      px      :     0.013818
      py      :     0.033525
 34 H s       :     0.773824  s :     0.773824
      pz      :     0.014540  p :     0.059579
      px      :     0.029579
      py      :     0.015461
 35 H s       :     0.773815  s :     0.773815
      pz      :     0.014531  p :     0.059562
      px      :     0.015456
      py      :     0.029575
 36 Fes       :     6.215850  s :     6.215850
      pz      :     4.104927  p :    12.550402
      px      :     4.222765
      py      :     4.222709
      dz2     :     0.160415  d :     6.993746
      dxz     :     2.001419
      dyz     :     2.000735
      dx2y2   :     1.214207
      dxy     :     1.616969
      f0      :     0.000081  f :     0.001608
      f+1     :     0.000223
      f-1     :     0.000223
      f+2     :     0.000089
      f-2     :     0.000044
      f+3     :     0.000474
      f-3     :     0.000474


                      *****************************
                      * MAYER POPULATION ANALYSIS *
                      *****************************

  NA   - Mulliken gross atomic population
  ZA   - Total nuclear charge
  QA   - Mulliken gross atomic charge
  VA   - Mayer's total valence
  BVA  - Mayer's bonded valence
  FA   - Mayer's free valence

  ATOM       NA         ZA         QA         VA         BVA        FA
  0 C      6.2212     6.0000    -0.2212     3.8453     3.8453     0.0000
  1 C      6.2209     6.0000    -0.2209     3.8458     3.8458     0.0000
  2 C      5.7372     6.0000     0.2628     3.7218     3.7218    -0.0000
  3 C      5.7383     6.0000     0.2617     3.7248     3.7248     0.0000
  4 N      7.1812     7.0000    -0.1812     3.2108     3.2108     0.0000
  5 C      6.3696     6.0000    -0.3696     3.8719     3.8719     0.0000
  6 C      5.7375     6.0000     0.2625     3.7225     3.7225    -0.0000
  7 N      7.1816     7.0000    -0.1816     3.2106     3.2106    -0.0000
  8 C      5.7379     6.0000     0.2621     3.7242     3.7242    -0.0000
  9 C      6.2207     6.0000    -0.2207     3.8455     3.8455    -0.0000
 10 C      6.2214     6.0000    -0.2214     3.8452     3.8452     0.0000
 11 C      6.3698     6.0000    -0.3698     3.8718     3.8718     0.0000
 12 C      5.7380     6.0000     0.2620     3.7233     3.7233    -0.0000
 13 N      7.1812     7.0000    -0.1812     3.2108     3.2108    -0.0000
 14 C      6.2219     6.0000    -0.2219     3.8458     3.8458     0.0000
 15 C      6.2200     6.0000    -0.2200     3.8454     3.8454     0.0000
 16 C      5.7377     6.0000     0.2623     3.7227     3.7227     0.0000
 17 N      7.1812     7.0000    -0.1812     3.2107     3.2107    -0.0000
 18 C      5.7381     6.0000     0.2619     3.7243     3.7243     0.0000
 19 C      6.2213     6.0000    -0.2213     3.8452     3.8452    -0.0000
 20 C      6.2204     6.0000    -0.2204     3.8457     3.8457     0.0000
 21 C      6.3700     6.0000    -0.3700     3.8719     3.8719     0.0000
 22 C      6.3695     6.0000    -0.3695     3.8715     3.8715    -0.0000
 23 C      5.7378     6.0000     0.2622     3.7237     3.7237     0.0000
 24 H      0.8585     1.0000     0.1415     0.9737     0.9737    -0.0000
 25 H      0.8585     1.0000     0.1415     0.9737     0.9737     0.0000
 26 H      0.8529     1.0000     0.1471     0.9689     0.9689     0.0000
 27 H      0.8584     1.0000     0.1416     0.9737     0.9737     0.0000
 28 H      0.8586     1.0000     0.1414     0.9737     0.9737     0.0000
 29 H      0.8530     1.0000     0.1470     0.9690     0.9690     0.0000
 30 H      0.8586     1.0000     0.1414     0.9738     0.9738     0.0000
 31 H      0.8583     1.0000     0.1417     0.9736     0.9736     0.0000
 32 H      0.8586     1.0000     0.1414     0.9737     0.9737     0.0000
 33 H      0.8584     1.0000     0.1416     0.9737     0.9737     0.0000
 34 H      0.8529     1.0000     0.1471     0.9690     0.9690     0.0000
 35 H      0.8530     1.0000     0.1470     0.9690     0.9690     0.0000
 36 Fe    25.8457    26.0000     0.1543     2.9054     2.9054    -0.0000

  Mayer bond orders larger than 0.100000
B(  0-C ,  1-C ) :   1.6023 B(  0-C ,  3-C ) :   1.1067 B(  0-C , 24-H ) :   0.9977 
B(  1-C ,  2-C ) :   1.1073 B(  1-C , 25-H ) :   0.9977 B(  2-C ,  4-N ) :   1.2240 
B(  2-C , 21-C ) :   1.2992 B(  3-C ,  4-N ) :   1.2252 B(  3-C ,  5-C ) :   1.3009 
B(  4-N , 36-Fe) :   0.6364 B(  5-C ,  6-C ) :   1.2993 B(  5-C , 26-H ) :   0.9949 
B(  6-C ,  7-N ) :   1.2241 B(  6-C ,  9-C ) :   1.1074 B(  7-N ,  8-C ) :   1.2252 
B(  7-N , 36-Fe) :   0.6359 B(  8-C , 10-C ) :   1.1067 B(  8-C , 11-C ) :   1.3006 
B(  9-C , 10-C ) :   1.6021 B(  9-C , 27-H ) :   0.9976 B( 10-C , 28-H ) :   0.9980 
B( 11-C , 12-C ) :   1.2994 B( 11-C , 29-H ) :   0.9950 B( 12-C , 13-N ) :   1.2243 
B( 12-C , 15-C ) :   1.1077 B( 13-N , 23-C ) :   1.2250 B( 13-N , 36-Fe) :   0.6364 
B( 14-C , 15-C ) :   1.6022 B( 14-C , 23-C ) :   1.1068 B( 14-C , 30-H ) :   0.9980 
B( 15-C , 31-H ) :   0.9974 B( 16-C , 17-N ) :   1.2239 B( 16-C , 20-C ) :   1.1077 
B( 16-C , 22-C ) :   1.2993 B( 17-N , 18-C ) :   1.2251 B( 17-N , 36-Fe) :   0.6365 
B( 18-C , 19-C ) :   1.1066 B( 18-C , 21-C ) :   1.3007 B( 19-C , 20-C ) :   1.6022 
B( 19-C , 32-H ) :   0.9979 B( 20-C , 33-H ) :   0.9975 B( 21-C , 34-H ) :   0.9951 
B( 22-C , 23-C ) :   1.3005 B( 22-C , 35-H ) :   0.9950 

-------
TIMINGS
-------

Total SCF time: 0 days 0 hours 38 min 9 sec 

Total time                  ....    2289.447 sec
Sum of individual times     ....    2283.682 sec  ( 99.7%)

Fock matrix formation       ....    2258.514 sec  ( 98.6%)
  Split-RI-J                ....     132.189 sec  (  5.9% of F)
  Chain of spheres X        ....    1856.937 sec  ( 82.2% of F)
  XC integration            ....     123.144 sec  (  5.5% of F)
    Basis function eval.    ....      34.478 sec  ( 28.0% of XC)
    Density eval.           ....      56.348 sec  ( 45.8% of XC)
    XC-Functional eval.     ....       2.628 sec  (  2.1% of XC)
    XC-Potential eval.      ....      25.545 sec  ( 20.7% of XC)
Diagonalization             ....       3.518 sec  (  0.2%)
Density matrix formation    ....       0.301 sec  (  0.0%)
Population analysis         ....       0.291 sec  (  0.0%)
Initial guess               ....       0.454 sec  (  0.0%)
Orbital Transformation      ....       0.000 sec  (  0.0%)
Orbital Orthonormalization  ....       0.360 sec  (  0.0%)
DIIS solution               ....       1.706 sec  (  0.1%)
Grid generation             ....      18.898 sec  (  0.8%)

Maximum memory used throughout the entire SCF-calculation: 737.2 MB


-------------------------------------------------------------------------------
                          DFT DISPERSION CORRECTION                            
                                                                               
                                 DFTD4 V2.5                                    
-------------------------------------------------------------------------------
The B3LYP functional is recognized
Active option DFTDOPT                   ...         5   

Starting D4
-------------------------   ----------------
Dispersion correction           -0.108013479
-------------------------   ----------------


-------------------------   --------------------
FINAL SINGLE POINT ENERGY     -2251.946165793107
-------------------------   --------------------

                                *** OPTIMIZATION RUN DONE ***

                            ***************************************
                            *     ORCA property calculations      *
                            ***************************************

                                    ---------------------
                                    Active property flags
                                    ---------------------
   (+) Dipole Moment


------------------------------------------------------------------------------
                       ORCA ELECTRIC PROPERTIES CALCULATION
------------------------------------------------------------------------------

Dipole Moment Calculation                       ... on
Quadrupole Moment Calculation                   ... off
Polarizability Calculation                      ... off
GBWName                                         ... Fe_Porphyrin_opt.gbw
Electron density                                ... Fe_Porphyrin_opt.scfp
The origin for moment calculation is the CENTER OF MASS  = ( 0.000343,  0.015174  0.001730)

-------------
DIPOLE MOMENT
-------------
                                X             Y             Z
Electronic contribution:      0.00110      -0.00311       0.00478
Nuclear contribution   :     -0.00049       0.00236      -0.00719
                        -----------------------------------------
Total Dipole Moment    :      0.00061      -0.00075      -0.00241
                        -----------------------------------------
Magnitude (a.u.)       :      0.00260
Magnitude (Debye)      :      0.00660



--------------------
Rotational spectrum 
--------------------
 
Rotational constants in cm-1:     0.009091     0.009089     0.004545 
Rotational constants in MHz :   272.540538   272.482619   136.256039 

 Dipole components along the rotational axes: 
x,y,z [a.u.] :    -0.000909     0.000392    -0.002401 
x,y,z [Debye]:    -0.002310     0.000997    -0.006103 

 

Timings for individual modules:

Sum of individual times         ...   103424.813 sec (=1723.747 min)
GTO integral calculation        ...       67.126 sec (=   1.119 min)   0.1 %
SCF iterations                  ...    95158.803 sec (=1585.980 min)  92.0 %
SCF Gradient evaluation         ...     8188.596 sec (= 136.477 min)   7.9 %
Geometry relaxation             ...       10.288 sec (=   0.171 min)   0.0 %
                             ****ORCA TERMINATED NORMALLY****
TOTAL RUN TIME: 1 days 4 hours 43 minutes 56 seconds 153 msec
