
                                 *****************
                                 * O   R   C   A *
                                 *****************

                                            #,                                       
                                            ###                                      
                                            ####                                     
                                            #####                                    
                                            ######                                   
                                           ########,                                 
                                     ,,################,,,,,                         
                               ,,#################################,,                 
                          ,,##########################################,,             
                       ,#########################################, ''#####,          
                    ,#############################################,,   '####,        
                  ,##################################################,,,,####,       
                ,###########''''           ''''###############################       
              ,#####''   ,,,,##########,,,,          '''####'''          '####       
            ,##' ,,,,###########################,,,                        '##       
           ' ,,###''''                  '''############,,,                           
         ,,##''                                '''############,,,,        ,,,,,,###''
      ,#''                                            '''#######################'''  
     '                                                          ''''####''''         
             ,#######,   #######,   ,#######,      ##                                
            ,#'     '#,  ##    ##  ,#'     '#,    #''#        ######   ,####,        
            ##       ##  ##   ,#'  ##            #'  '#       #        #'  '#        
            ##       ##  #######   ##           ,######,      #####,   #    #        
            '#,     ,#'  ##    ##  '#,     ,#' ,#      #,         ##   #,  ,#        
             '#######'   ##     ##  '#######'  #'      '#     #####' # '####'        



                  #######################################################
                  #                        -***-                        #
                  #          Department of theory and spectroscopy      #
                  #    Directorship and core code : Frank Neese         #
                  #        Max Planck Institute fuer Kohlenforschung    #
                  #                Kaiser Wilhelm Platz 1               #
                  #                 D-45470 Muelheim/Ruhr               #
                  #                      Germany                        #
                  #                                                     #
                  #                  All rights reserved                #
                  #                        -***-                        #
                  #######################################################



                         Program Version 5.0.4 -  RELEASE  -

 With contributions from (in alphabetic order):
   Daniel Aravena         : Magnetic Suceptibility
   Michael Atanasov       : Ab Initio Ligand Field Theory (pilot matlab implementation)
   Alexander A. Auer      : GIAO ZORA, VPT2 properties, NMR spectrum
   Ute Becker             : Parallelization
   Giovanni Bistoni       : ED, misc. LED, open-shell LED, HFLD
   Martin Brehm           : Molecular dynamics
   Dmytro Bykov           : SCF Hessian
   Vijay G. Chilkuri      : MRCI spin determinant printing, contributions to CSF-ICE
   Dipayan Datta          : RHF DLPNO-CCSD density
   Achintya Kumar Dutta   : EOM-CC, STEOM-CC
   Dmitry Ganyushin       : Spin-Orbit,Spin-Spin,Magnetic field MRCI
   Miquel Garcia          : C-PCM and meta-GGA Hessian, CC/C-PCM, Gaussian charge scheme
   Yang Guo               : DLPNO-NEVPT2, F12-NEVPT2, CIM, IAO-localization
   Andreas Hansen         : Spin unrestricted coupled pair/coupled cluster methods
   Benjamin Helmich-Paris : MC-RPA, TRAH-SCF, COSX integrals
   Lee Huntington         : MR-EOM, pCC
   Robert Izsak           : Overlap fitted RIJCOSX, COSX-SCS-MP3, EOM
   Marcus Kettner         : VPT2
   Christian Kollmar      : KDIIS, OOCD, Brueckner-CCSD(T), CCSD density, CASPT2, CASPT2-K
   Simone Kossmann        : Meta GGA functionals, TD-DFT gradient, OOMP2, MP2 Hessian
   Martin Krupicka        : Initial AUTO-CI
   Lucas Lang             : DCDCAS
   Marvin Lechner         : AUTO-CI (C++ implementation), FIC-MRCC
   Dagmar Lenk            : GEPOL surface, SMD
   Dimitrios Liakos       : Extrapolation schemes; Compound Job, initial MDCI parallelization
   Dimitrios Manganas     : Further ROCIS development; embedding schemes
   Dimitrios Pantazis     : SARC Basis sets
   Anastasios Papadopoulos: AUTO-CI, single reference methods and gradients
   Taras Petrenko         : DFT Hessian,TD-DFT gradient, ASA, ECA, R-Raman, ABS, FL, XAS/XES, NRVS
   Peter Pinski           : DLPNO-MP2, DLPNO-MP2 Gradient
   Christoph Reimann      : Effective Core Potentials
   Marius Retegan         : Local ZFS, SOC
   Christoph Riplinger    : Optimizer, TS searches, QM/MM, DLPNO-CCSD(T), (RO)-DLPNO pert. Triples
   Tobias Risthaus        : Range-separated hybrids, TD-DFT gradient, RPA, STAB
   Michael Roemelt        : Original ROCIS implementation
   Masaaki Saitow         : Open-shell DLPNO-CCSD energy and density
   Barbara Sandhoefer     : DKH picture change effects
   Avijit Sen             : IP-ROCIS
   Kantharuban Sivalingam : CASSCF convergence, NEVPT2, FIC-MRCI
   Bernardo de Souza      : ESD, SOC TD-DFT
   Georgi Stoychev        : AutoAux, RI-MP2 NMR, DLPNO-MP2 response
   Willem Van den Heuvel  : Paramagnetic NMR
   Boris Wezisla          : Elementary symmetry handling
   Frank Wennmohs         : Technical directorship


 We gratefully acknowledge several colleagues who have allowed us to
 interface, adapt or use parts of their codes:
   Stefan Grimme, W. Hujo, H. Kruse, P. Pracht,  : VdW corrections, initial TS optimization,
                  C. Bannwarth, S. Ehlert          DFT functionals, gCP, sTDA/sTD-DF
   Ed Valeev, F. Pavosevic, A. Kumar             : LibInt (2-el integral package), F12 methods
   Garnet Chan, S. Sharma, J. Yang, R. Olivares  : DMRG
   Ulf Ekstrom                                   : XCFun DFT Library
   Mihaly Kallay                                 : mrcc  (arbitrary order and MRCC methods)
   Jiri Pittner, Ondrej Demel                    : Mk-CCSD
   Frank Weinhold                                : gennbo (NPA and NBO analysis)
   Christopher J. Cramer and Donald G. Truhlar   : smd solvation model
   Lars Goerigk                                  : TD-DFT with DH, B97 family of functionals
   V. Asgeirsson, H. Jonsson                     : NEB implementation
   FAccTs GmbH                                   : IRC, NEB, NEB-TS, DLPNO-Multilevel, CI-OPT
                                                   MM, QMMM, 2- and 3-layer-ONIOM, Crystal-QMMM,
                                                   LR-CPCM, SF, NACMEs, symmetry and pop. for TD-DFT,
                                                   nearIR, NL-DFT gradient (VV10), updates on ESD,
                                                   ML-optimized integration grids
   S Lehtola, MJT Oliveira, MAL Marques          : LibXC Library
   Liviu Ungur et al                             : ANISO software


 Your calculation uses the libint2 library for the computation of 2-el integrals
 For citations please refer to: http://libint.valeyev.net

 Your ORCA version has been built with support for libXC version: 5.1.0
 For citations please refer to: https://tddft.org/programs/libxc/

 This ORCA versions uses:
   CBLAS   interface :  Fast vector & matrix operations
   LAPACKE interface :  Fast linear algebra routines
   Shared memory     :  Shared parallel matrices


Your calculation utilizes the atom-pairwise dispersion correction
based on tight binding partial charges (D4)
Cite in your paper:
E.Caldeweyher, C.Bannwarth, S.Grimme, J.Chem.Phys., (2017), 147, 034112.
E.Caldeweyher, S.Ehlert, A.Hansen, H.Neugebauer, S.Grimme, J.Chem.Phys., (2018), in progress.
   

================================================================================

----- Orbital basis set information -----
Your calculation utilizes the basis: def2-SVP
   F. Weigend and R. Ahlrichs, Phys. Chem. Chem. Phys. 7, 3297 (2005).

----- AuxJ basis set information -----
Your calculation utilizes the auxiliary basis: def2/J
   F. Weigend, Phys. Chem. Chem. Phys. 8, 1057 (2006).

================================================================================
                                        WARNINGS
                       Please study these warnings very carefully!
================================================================================


WARNING: Geometry Optimization
  ===> : Switching off AutoStart
         For restart on a previous wavefunction, please use MOREAD

INFO   : the flag for use of the SHARK integral package has been found!

================================================================================
                                       INPUT FILE
================================================================================
NAME = opt4.inp
|  1> !B3LYP DEF2-SVP OPT FREQ D4 SOSCF
|  2> 
|  3> * xyz 1 1
|  4>    C       -2.59212        1.36682       -1.28909
|  5>    C       -3.51304        0.39149       -1.80742
|  6>    C       -3.46055       -0.92496       -1.40174
|  7>    C       -2.49473       -1.34162       -0.46267
|  8>    C       -1.57781       -0.41520        0.06567
|  9>    C       -1.61526        0.90946       -0.32959
| 10>    H       -4.25874        0.72213       -2.53449
| 11>    H       -4.17101       -1.64666       -1.81035
| 12>    H       -2.45298       -2.38423       -0.14082
| 13>    H       -0.82278       -0.71608        0.79282
| 14>    H        8.84297       -2.24572       16.88908
| 15>    N       -2.66544        2.63134       -1.69865
| 16>    H       -3.36669        2.91812       -2.37563
| 17>    H       -1.99132        3.29833       -1.30697
| 18>    N       -0.62577        1.82830        0.26368
| 19>    O       -0.65794        3.00668       -0.08946
| 20>    O        0.15869        1.36892        1.06226
| 21> **                         ****END OF INPUT****
================================================================================

                       *****************************
                       * Geometry Optimization Run *
                       *****************************

Geometry optimization settings:
Update method            Update   .... BFGS
Choice of coordinates    CoordSys .... Z-matrix Internals
Initial Hessian          InHess   .... Almoef's Model

Convergence Tolerances:
Energy Change            TolE     ....  5.0000e-06 Eh
Max. Gradient            TolMAXG  ....  3.0000e-04 Eh/bohr
RMS Gradient             TolRMSG  ....  1.0000e-04 Eh/bohr
Max. Displacement        TolMAXD  ....  4.0000e-03 bohr
RMS Displacement         TolRMSD  ....  2.0000e-03 bohr
Strict Convergence                ....  False
------------------------------------------------------------------------------
                        ORCA OPTIMIZATION COORDINATE SETUP
------------------------------------------------------------------------------

The optimization will be done in new redundant internal coordinates
Making redundant internal coordinates   ...  (new redundants) done
Evaluating the initial hessian          ...  (Almloef) done
Evaluating the coordinates              ...  done
Calculating the B-matrix                .... done
Calculating the G-matrix                .... done
Diagonalizing the G-matrix              .... done
Small eigenvalue found = 1.537e-02
Small eigenvalue found = 2.416e-02
The first mode is                       ....   38
The number of degrees of freedom        ....   45

    -----------------------------------------------------------------
                    Redundant Internal Coordinates


    -----------------------------------------------------------------
         Definition                    Initial Value    Approx d2E/dq
    -----------------------------------------------------------------
      1. B(C   1,C   0)                  1.4381         0.523667   
      2. B(C   2,C   1)                  1.3785         0.651662   
      3. B(C   3,C   2)                  1.4101         0.580411   
      4. B(C   4,C   3)                  1.4065         0.588128   
      5. B(C   5,C   4)                  1.3829         0.641354   
      6. B(C   5,C   0)                  1.4436         0.513064   
      7. B(H   6,C   1)                  1.0927         0.356529   
      8. B(H   7,C   2)                  1.0920         0.357402   
      9. B(H   8,C   3)                  1.0920         0.357523   
     10. B(H   9,C   4)                  1.0906         0.359345   
     11. B(H  10,H   9)                 18.8376         0.000000   
     12. B(N  11,C   0)                  1.3312         0.694493   
     13. B(H  12,N  11)                  1.0160         0.423244   
     14. B(H  13,N  11)                  1.0260         0.407970   
     15. B(N  14,C   5)                  1.4749         0.409661   
     16. B(O  15,N  14)                  1.2306         0.900244   
     17. B(O  16,H  10)                 18.4112         0.000000   
     18. B(O  16,N  14)                  1.2100         0.970881   
     19. A(C   1,C   0,C   5)          117.2596         0.407195   
     20. A(C   5,C   0,N  11)          122.8672         0.425401   
     21. A(C   1,C   0,N  11)          119.8733         0.426962   
     22. A(C   0,C   1,C   2)          121.1462         0.424892   
     23. A(C   2,C   1,H   6)          120.7139         0.355299   
     24. A(C   0,C   1,H   6)          118.1399         0.342440   
     25. A(C   3,C   2,H   7)          119.9683         0.348555   
     26. A(C   1,C   2,C   3)          120.2815         0.432805   
     27. A(C   1,C   2,H   7)          119.7503         0.355447   
     28. A(C   2,C   3,C   4)          120.1378         0.424914   
     29. A(C   2,C   3,H   8)          120.3062         0.348575   
     30. A(C   4,C   3,H   8)          119.5560         0.349352   
     31. A(C   5,C   4,H   9)          118.2684         0.354813   
     32. A(C   3,C   4,C   5)          120.3932         0.432592   
     33. A(C   3,C   4,H   9)          121.3385         0.349651   
     34. A(C   0,C   5,C   4)          120.7818         0.422136   
     35. A(C   4,C   5,N  14)          117.6208         0.402985   
     36. A(C   0,C   5,N  14)          121.5974         0.387518   
     37. A(C   4,H   9,H  10)          161.3286         0.089000   
     38. A(H   9,H  10,O  16)            7.0209         0.089000   
     39. A(H  12,N  11,H  13)          121.6240         0.299366   
     40. A(C   0,N  11,H  13)          117.6371         0.362021   
     41. A(C   0,N  11,H  12)          120.7389         0.364302   
     42. A(O  15,N  14,O  16)          124.7423         0.490929   
     43. A(C   5,N  14,O  16)          117.6388         0.428169   
     44. A(C   5,N  14,O  15)          117.6189         0.422420   
     45. A(H  10,O  16,N  14)          161.3820         0.089000   
     46. D(C   2,C   1,C   0,C   5)     -0.0226         0.018707   
     47. D(C   2,C   1,C   0,N  11)    179.9873         0.018707   
     48. D(H   6,C   1,C   0,C   5)    179.9867         0.018707   
     49. D(H   6,C   1,C   0,N  11)     -0.0034         0.018707   
     50. D(C   3,C   2,C   1,H   6)   -179.9806         0.029579   
     51. D(H   7,C   2,C   1,C   0)   -179.9861         0.029579   
     52. D(C   3,C   2,C   1,C   0)      0.0290         0.029579   
     53. D(H   7,C   2,C   1,H   6)      0.0043         0.029579   
     54. D(H   8,C   3,C   2,H   7)     -0.0032         0.023146   
     55. D(H   8,C   3,C   2,C   1)    179.9817         0.023146   
     56. D(C   4,C   3,C   2,H   7)    179.9865         0.023146   
     57. D(C   4,C   3,C   2,C   1)     -0.0286         0.023146   
     58. D(H   9,C   4,C   3,C   2)   -179.9935         0.023796   
     59. D(C   5,C   4,C   3,H   8)   -179.9876         0.023796   
     60. D(C   5,C   4,C   3,C   2)      0.0227         0.023796   
     61. D(H   9,C   4,C   3,H   8)     -0.0037         0.023796   
     62. D(N  14,C   5,C   4,H   9)     -0.0146         0.028587   
     63. D(C   0,C   5,C   4,H   9)    179.9986         0.028587   
     64. D(C   0,C   5,C   4,C   3)     -0.0170         0.028587   
     65. D(N  14,C   5,C   0,N  11)      0.0201         0.017943   
     66. D(N  14,C   5,C   0,C   1)   -179.9697         0.017943   
     67. D(N  14,C   5,C   4,C   3)    179.9698         0.028587   
     68. D(C   4,C   5,C   0,N  11)   -179.9937         0.017943   
     69. D(C   4,C   5,C   0,C   1)      0.0165         0.017943   
     70. D(H  10,H   9,C   4,C   5)     66.4251         0.109070   
     71. D(H  10,H   9,C   4,C   3)   -113.5591         0.109070   
     72. D(O  16,H  10,H   9,C   4)    -69.6193         0.001500   
     73. D(H  13,N  11,C   0,C   5)      0.0399         0.039850   
     74. D(H  13,N  11,C   0,C   1)   -179.9706         0.039850   
     75. D(H  12,N  11,C   0,C   5)   -179.9800         0.039850   
     76. D(H  12,N  11,C   0,C   1)      0.0096         0.039850   
     77. D(O  16,N  14,C   5,C   4)     -0.0993         0.013239   
     78. D(O  16,N  14,C   5,C   0)    179.8874         0.013239   
     79. D(O  15,N  14,C   5,C   4)    179.9020         0.013239   
     80. D(O  15,N  14,C   5,C   0)     -0.1113         0.013239   
     81. D(H  10,O  16,N  14,O  15)     69.2274         0.091166   
     82. D(H  10,O  16,N  14,C   5)   -110.7712         0.091166   
     83. D(N  14,O  16,H  10,H   9)    109.6952         0.001500   
    -----------------------------------------------------------------

Number of atoms                         .... 17
Number of degrees of freedom            .... 83

         *************************************************************
         *                GEOMETRY OPTIMIZATION CYCLE   1            *
         *************************************************************
---------------------------------
CARTESIAN COORDINATES (ANGSTROEM)
---------------------------------
  C     -2.592120    1.366820   -1.289090
  C     -3.513040    0.391490   -1.807420
  C     -3.460550   -0.924960   -1.401740
  C     -2.494730   -1.341620   -0.462670
  C     -1.577810   -0.415200    0.065670
  C     -1.615260    0.909460   -0.329590
  H     -4.258740    0.722130   -2.534490
  H     -4.171010   -1.646660   -1.810350
  H     -2.452980   -2.384230   -0.140820
  H     -0.822780   -0.716080    0.792820
  H      8.842970   -2.245720   16.889080
  N     -2.665440    2.631340   -1.698650
  H     -3.366690    2.918120   -2.375630
  H     -1.991320    3.298330   -1.306970
  N     -0.625770    1.828300    0.263680
  O     -0.657940    3.006680   -0.089460
  O      0.158690    1.368920    1.062260

----------------------------
CARTESIAN COORDINATES (A.U.)
----------------------------
  NO LB      ZA    FRAG     MASS         X           Y           Z
   0 C     6.0000    0    12.011   -4.898397    2.582915   -2.436027
   1 C     6.0000    0    12.011   -6.638683    0.739809   -3.415529
   2 C     6.0000    0    12.011   -6.539492   -1.747921   -2.648905
   3 C     6.0000    0    12.011   -4.714356   -2.535294   -0.874320
   4 C     6.0000    0    12.011   -2.981629   -0.784614    0.124098
   5 C     6.0000    0    12.011   -3.052399    1.718630   -0.622835
   6 H     1.0000    0     1.008   -8.047852    1.364628   -4.789492
   7 H     1.0000    0     1.008   -7.882067   -3.111736   -3.421066
   8 H     1.0000    0     1.008   -4.635460   -4.505542   -0.266111
   9 H     1.0000    0     1.008   -1.554829   -1.353195    1.498213
  10 H     1.0000    0     1.008   16.710792   -4.243796   31.915736
  11 N     7.0000    0    14.007   -5.036952    4.972512   -3.209983
  12 H     1.0000    0     1.008   -6.362122    5.514448   -4.489290
  13 H     1.0000    0     1.008   -3.763049    6.232940   -2.469815
  14 N     7.0000    0    14.007   -1.182534    3.454986    0.498283
  15 O     8.0000    0    15.999   -1.243326    5.681802   -0.169055
  16 O     8.0000    0    15.999    0.299881    2.586884    2.007380

--------------------------------
INTERNAL COORDINATES (ANGSTROEM)
--------------------------------
 C      0   0   0     0.000000000000     0.00000000     0.00000000
 C      1   0   0     1.438064061230     0.00000000     0.00000000
 C      2   1   0     1.378539830763   121.14617003     0.00000000
 C      3   2   1     1.410058967880   120.28148944     0.02897318
 C      4   3   2     1.406463457897   120.13779110   359.97136799
 C      5   4   3     1.382879996854   120.39319032     0.00000000
 H      2   1   3     1.092713175769   118.13989624   180.00932941
 H      3   2   1     1.092046900870   119.75025116   180.01391565
 H      4   3   2     1.091955171745   120.30623571   179.98169777
 H      5   4   3     1.090571500545   121.33845409   180.00654171
 H     10   5   4    18.837624786042   161.32862554   246.44088263
 N      1   2   3     1.331212246939   119.87328081   179.98726409
 H     12   1   2     1.016019808518   120.73892428     0.00000000
 H     12   1   2     1.026024686301   117.63708370   180.02941382
 N      6   5   4     1.474898877415   117.62079390   179.96976587
 O     15   6   5     1.230577991393   117.61892621   179.90199968
 O     15   6   5     1.210015492628   117.63879420   359.90074184

---------------------------
INTERNAL COORDINATES (A.U.)
---------------------------
 C      0   0   0     0.000000000000     0.00000000     0.00000000
 C      1   0   0     2.717547238758     0.00000000     0.00000000
 C      2   1   0     2.605062744844   121.14617003     0.00000000
 C      3   2   1     2.664625281974   120.28148944     0.02897318
 C      4   3   2     2.657830752793   120.13779110   359.97136799
 C      5   4   3     2.613264470133   120.39319032     0.00000000
 H      2   1   3     2.064928645131   118.13989624   180.00932941
 H      3   2   1     2.063669568042   119.75025116   180.01391565
 H      4   3   2     2.063496225116   120.30623571   179.98169777
 H      5   4   3     2.060881465489   121.33845409   180.00654171
 H     10   5   4    35.597951859186   161.32862554   246.44088263
 N      1   2   3     2.515626572836   119.87328081   179.98726409
 H     12   1   2     1.919999184737   120.73892428     0.00000000
 H     12   1   2     1.938905663752   117.63708370   180.02941382
 N      6   5   4     2.787154953542   117.62079390   179.96976587
 O     15   6   5     2.325455390163   117.61892621   179.90199968
 O     15   6   5     2.286597898869   117.63879420   359.90074184

---------------------
BASIS SET INFORMATION
---------------------
There are 4 groups of distinct atoms

 Group   1 Type C   : 7s4p1d contracted to 3s2p1d pattern {511/31/1}
 Group   2 Type H   : 4s1p contracted to 2s1p pattern {31/1}
 Group   3 Type N   : 7s4p1d contracted to 3s2p1d pattern {511/31/1}
 Group   4 Type O   : 7s4p1d contracted to 3s2p1d pattern {511/31/1}

Atom   0C    basis set group =>   1
Atom   1C    basis set group =>   1
Atom   2C    basis set group =>   1
Atom   3C    basis set group =>   1
Atom   4C    basis set group =>   1
Atom   5C    basis set group =>   1
Atom   6H    basis set group =>   2
Atom   7H    basis set group =>   2
Atom   8H    basis set group =>   2
Atom   9H    basis set group =>   2
Atom  10H    basis set group =>   2
Atom  11N    basis set group =>   3
Atom  12H    basis set group =>   2
Atom  13H    basis set group =>   2
Atom  14N    basis set group =>   3
Atom  15O    basis set group =>   4
Atom  16O    basis set group =>   4
---------------------------------
AUXILIARY/J BASIS SET INFORMATION
---------------------------------
There are 4 groups of distinct atoms

 Group   1 Type C   : 12s5p4d2f1g contracted to 6s4p3d1f1g pattern {711111/2111/211/2/1}
 Group   2 Type H   : 5s2p1d contracted to 3s1p1d pattern {311/2/1}
 Group   3 Type N   : 12s5p4d2f1g contracted to 6s4p3d1f1g pattern {711111/2111/211/2/1}
 Group   4 Type O   : 12s5p4d2f1g contracted to 6s4p3d1f1g pattern {711111/2111/211/2/1}

Atom   0C    basis set group =>   1
Atom   1C    basis set group =>   1
Atom   2C    basis set group =>   1
Atom   3C    basis set group =>   1
Atom   4C    basis set group =>   1
Atom   5C    basis set group =>   1
Atom   6H    basis set group =>   2
Atom   7H    basis set group =>   2
Atom   8H    basis set group =>   2
Atom   9H    basis set group =>   2
Atom  10H    basis set group =>   2
Atom  11N    basis set group =>   3
Atom  12H    basis set group =>   2
Atom  13H    basis set group =>   2
Atom  14N    basis set group =>   3
Atom  15O    basis set group =>   4
Atom  16O    basis set group =>   4
------------------------------------------------------------------------------
                           ORCA GTO INTEGRAL CALCULATION
                           -- RI-GTO INTEGRALS CHOSEN --
------------------------------------------------------------------------------
------------------------------------------------------------------------------
                   ___                                                        
                  /   \      - P O W E R E D   B Y -                         
                 /     \                                                     
                 |  |  |   _    _      __       _____    __    __             
                 |  |  |  | |  | |    /  \     |  _  \  |  |  /  |          
                  \  \/   | |  | |   /    \    | | | |  |  | /  /          
                 / \  \   | |__| |  /  /\  \   | |_| |  |  |/  /          
                |  |  |   |  __  | /  /__\  \  |    /   |      \           
                |  |  |   | |  | | |   __   |  |    \   |  |\   \          
                \     /   | |  | | |  |  |  |  | |\  \  |  | \   \       
                 \___/    |_|  |_| |__|  |__|  |_| \__\ |__|  \__/        
                                                                              
                      - O R C A' S   B I G   F R I E N D -                    
                                      &                                       
                       - I N T E G R A L  F E E D E R -                       
                                                                              
 v1 FN, 2020, v2 2021                                                         
------------------------------------------------------------------------------


Reading SHARK input file opt4.SHARKINP.tmp ... ok
----------------------
SHARK INTEGRAL PACKAGE
----------------------

Number of atoms                             ...     17
Number of basis functions                   ...    175
Number of shells                            ...     81
Maximum angular momentum                    ...      2
Integral batch strategy                     ... SHARK/LIBINT Hybrid
RI-J (if used) integral strategy            ... SPLIT-RIJ (Revised 2003 algorithm where possible)
Printlevel                                  ...      1
Contraction scheme used                     ... SEGMENTED contraction
Coulomb Range Separation                    ... NOT USED
Exchange Range Separation                   ... NOT USED
Finite Nucleus Model                        ... NOT USED
Auxiliary Coulomb fitting basis             ... AVAILABLE
   # of basis functions in Aux-J            ...    567
   # of shells in Aux-J                     ...    185
   Maximum angular momentum in Aux-J        ...      4
Auxiliary J/K fitting basis                 ... NOT available
Auxiliary Correlation fitting basis         ... NOT available
Auxiliary 'external' fitting basis          ... NOT available
Integral threshold                          ...     2.500000e-11
Primitive cut-off                           ...     2.500000e-12
Primitive pair pre-selection threshold      ...     2.500000e-12

Calculating pre-screening integrals         ... done (  0.1 sec) Dimension = 81
Organizing shell pair data                  ... done (  0.1 sec)
Shell pair information
Total number of shell pairs                 ...      3321
Shell pairs after pre-screening             ...      2849
Total number of primitive shell pairs       ...     12241
Primitive shell pairs kept                  ...      7591
          la=0 lb=0:    830 shell pairs
          la=1 lb=0:   1016 shell pairs
          la=1 lb=1:    333 shell pairs
          la=2 lb=0:    379 shell pairs
          la=2 lb=1:    240 shell pairs
          la=2 lb=2:     51 shell pairs

Calculating one electron integrals          ... done (  0.1 sec)
Calculating RI/J V-Matrix + Cholesky decomp.... done (  0.1 sec)
Calculating Nuclear repulsion               ... done (  0.0 sec) ENN=    509.988675994840 Eh

SHARK setup successfully completed in   0.7 seconds

Maximum memory used throughout the entire GTOINT-calculation: 24.4 MB
-------------------------------------------------------------------------------
                                 ORCA SCF
-------------------------------------------------------------------------------

------------
SCF SETTINGS
------------
Hamiltonian:
 Density Functional     Method          .... DFT(GTOs)
 Exchange Functional    Exchange        .... B88
   X-Alpha parameter    XAlpha          ....  0.666667
   Becke's b parameter  XBeta           ....  0.004200
 Correlation Functional Correlation     .... LYP
 LDA part of GGA corr.  LDAOpt          .... VWN-5
 Gradients option       PostSCFGGA      .... off
 Hybrid DFT is turned on
   Fraction HF Exchange ScalHFX         ....  0.200000
   Scaling of DF-GGA-X  ScalDFX         ....  0.720000
   Scaling of DF-GGA-C  ScalDFC         ....  0.810000
   Scaling of DF-LDA-C  ScalLDAC        ....  1.000000
   Perturbative correction              ....  0.000000
   Density functional embedding theory  .... OFF
   NL short-range parameter             ....  4.800000
 RI-approximation to the Coulomb term is turned on
   Number of AuxJ basis functions       .... 567
   RIJ-COSX (HFX calculated with COS-X)).... on


General Settings:
 Integral files         IntName         .... opt4
 Hartree-Fock type      HFTyp           .... RHF
 Total Charge           Charge          ....    1
 Multiplicity           Mult            ....    1
 Number of Electrons    NEL             ....   72
 Basis Dimension        Dim             ....  175
 Nuclear Repulsion      ENuc            ....    509.9886759948 Eh

Convergence Acceleration:
 DIIS                   CNVDIIS         .... on
   Start iteration      DIISMaxIt       ....    12
   Startup error        DIISStart       ....  0.200000
   # of expansion vecs  DIISMaxEq       ....     5
   Bias factor          DIISBfac        ....   1.050
   Max. coefficient     DIISMaxC        ....  10.000
 Trust-Rad. Augm. Hess. CNVTRAH         .... auto
   Auto Start mean grad. ratio tolernc. ....  1.125000
   Auto Start start iteration           ....    20
   Auto Start num. interpolation iter.  ....    10
   Max. Number of Micro iterations      ....    16
   Max. Number of Macro iterations      .... Maxiter - #DIIS iter
   Number of Davidson start vectors     ....     2
   Converg. threshold I  (grad. norm)   ....   1.000e-05
   Converg. threshold II (energy diff.) ....   1.000e-08
   Grad. Scal. Fac. for Micro threshold ....   0.100
   Minimum threshold for Micro iter.    ....   0.010
   NR start threshold (gradient norm)   ....   0.001
   Initial trust radius                 ....   0.400
   Minimum AH scaling param. (alpha)    ....   1.000
   Maximum AH scaling param. (alpha)    .... 1000.000
   Orbital update algorithm             .... Taylor
   White noise on init. David. guess    .... on
   Maximum white noise                  ....   0.010
   Quad. conv. algorithm                .... NR
 SOSCF                  CNVSOSCF        .... on
   Start iteration      SOSCFMaxIt      ....   150
   Startup grad/error   SOSCFStart      ....  0.003300
 Level Shifting         CNVShift        .... on
   Level shift para.    LevelShift      ....    0.2500
   Turn off err/grad.   ShiftErr        ....    0.0010
 Zerner damping         CNVZerner       .... off
 Static damping         CNVDamp         .... on
   Fraction old density DampFac         ....    0.7000
   Max. Damping (<1)    DampMax         ....    0.9800
   Min. Damping (>=0)   DampMin         ....    0.0000
   Turn off err/grad.   DampErr         ....    0.1000
 Fernandez-Rico         CNVRico         .... off

SCF Procedure:
 Maximum # iterations   MaxIter         ....   125
 SCF integral mode      SCFMode         .... Direct
   Integral package                     .... SHARK and LIBINT hybrid scheme
 Reset frequency        DirectResetFreq ....    20
 Integral Threshold     Thresh          ....  2.500e-11 Eh
 Primitive CutOff       TCut            ....  2.500e-12 Eh

Convergence Tolerance:
 Convergence Check Mode ConvCheckMode   .... Total+1el-Energy
 Convergence forced     ConvForced      .... 0
 Energy Change          TolE            ....  1.000e-08 Eh
 1-El. energy change                    ....  1.000e-05 Eh
 Orbital Gradient       TolG            ....  1.000e-05
 Orbital Rotation angle TolX            ....  1.000e-05
 DIIS Error             TolErr          ....  5.000e-07


Diagonalization of the overlap matrix:
Smallest eigenvalue                        ... 2.263e-04
Time for diagonalization                   ...    0.017 sec
Threshold for overlap eigenvalues          ... 1.000e-08
Number of eigenvalues below threshold      ... 0
Time for construction of square roots      ...    0.047 sec
Total time needed                          ...    0.065 sec

Time for model grid setup =    1.642 sec

------------------------------
INITIAL GUESS: MODEL POTENTIAL
------------------------------
Loading Hartree-Fock densities                     ... done
Calculating cut-offs                               ... done
Initializing the effective Hamiltonian             ... done
Setting up the integral package (SHARK)            ... done
Starting the Coulomb interaction                   ... done (   0.8 sec)
Reading the grid                                   ... done
Mapping shells                                     ... done
Starting the XC term evaluation                    ... done (   1.4 sec)
  promolecular density results
     # of electrons  =     72.994971249
     EX              =    -62.439536572
     EC              =     -2.508518617
     EX+EC           =    -64.948055189
Transforming the Hamiltonian                       ... done (   0.0 sec)
Diagonalizing the Hamiltonian                      ... done (   0.0 sec)
Back transforming the eigenvectors                 ... done (   0.0 sec)
Now organizing SCF variables                       ... done
                      ------------------
                      INITIAL GUESS DONE (   4.1 sec)
                      ------------------
-------------------
DFT GRID GENERATION
-------------------

General Integration Accuracy     IntAcc      ... 4.388
Radial Grid Type                 RadialGrid  ... OptM3 with GC (2021)
Angular Grid (max. ang.)         AngularGrid ... 4 (Lebedev-302)
Angular grid pruning method      GridPruning ... 4 (adaptive)
Weight generation scheme         WeightScheme... Becke
Basis function cutoff            BFCut       ... 1.0000e-11
Integration weight cutoff        WCut        ... 1.0000e-14
Angular grids for H and He will be reduced by one unit
Partially contracted basis set               ... off
Rotationally invariant grid construction     ... off

Total number of grid points                  ...    83012
Total number of batches                      ...     1306
Average number of points per batch           ...       63
Average number of grid points per atom       ...     4883
Time for grid setup =    3.581 sec

--------------------
COSX GRID GENERATION
--------------------

GRIDX 1
-------
General Integration Accuracy     IntAcc      ... 3.816
Radial Grid Type                 RadialGrid  ... OptM3 with GC (2021)
Angular Grid (max. ang.)         AngularGrid ... 1 (Lebedev-50)
Angular grid pruning method      GridPruning ... 4 (adaptive)
Weight generation scheme         WeightScheme... Becke
Basis function cutoff            BFCut       ... 1.0000e-11
Integration weight cutoff        WCut        ... 1.0000e-14
Angular grids for H and He will be reduced by one unit
Partially contracted basis set               ... on
Rotationally invariant grid construction     ... off

Total number of grid points                  ...    10601
Total number of batches                      ...      173
Average number of points per batch           ...       61
Average number of grid points per atom       ...      624
UseSFitting                                  ... on

GRIDX 2
-------
General Integration Accuracy     IntAcc      ... 4.020
Radial Grid Type                 RadialGrid  ... OptM3 with GC (2021)
Angular Grid (max. ang.)         AngularGrid ... 2 (Lebedev-110)
Angular grid pruning method      GridPruning ... 4 (adaptive)
Weight generation scheme         WeightScheme... Becke
Basis function cutoff            BFCut       ... 1.0000e-11
Integration weight cutoff        WCut        ... 1.0000e-14
Angular grids for H and He will be reduced by one unit
Partially contracted basis set               ... on
Rotationally invariant grid construction     ... off

Total number of grid points                  ...    23479
Total number of batches                      ...      375
Average number of points per batch           ...       62
Average number of grid points per atom       ...     1381
UseSFitting                                  ... on

GRIDX 3
-------
General Integration Accuracy     IntAcc      ... 4.338
Radial Grid Type                 RadialGrid  ... OptM3 with GC (2021)
Angular Grid (max. ang.)         AngularGrid ... 3 (Lebedev-194)
Angular grid pruning method      GridPruning ... 4 (adaptive)
Weight generation scheme         WeightScheme... Becke
Basis function cutoff            BFCut       ... 1.0000e-11
Integration weight cutoff        WCut        ... 1.0000e-14
Angular grids for H and He will be reduced by one unit
Partially contracted basis set               ... on
Rotationally invariant grid construction     ... off

Total number of grid points                  ...    51623
Total number of batches                      ...      816
Average number of points per batch           ...       63
Average number of grid points per atom       ...     3037
UseSFitting                                  ... on

Time for X-Grid setup             =    4.611 sec

--------------
SCF ITERATIONS
--------------
ITER       Energy         Delta-E        Max-DP      RMS-DP      [F,P]     Damp
               ***  Starting incremental Fock matrix formation  ***
  0   -491.1942950747   0.000000000000 0.20729187  0.00381080  0.2204874 0.7000
  1   -491.4987273076  -0.304432232928 0.15058984  0.00241678  0.0775734 0.7000
                               ***Turning on DIIS***
  2   -491.5124276470  -0.013700339356 0.38001677  0.00507586  0.0360857 0.0000
  3   -491.1167953295   0.395632317477 0.01683320  0.00027596  0.2005494 0.7000
  4   -491.1266973200  -0.009901990456 0.19446603  0.00245597  0.1927319 0.7000
  5   -491.4967810514  -0.370083731482 0.45375407  0.00574577  0.0538090 0.0000
  6   -491.4470559123   0.049725139168 0.01568237  0.00048065  0.0823507 0.0000
  7   -491.4589594695  -0.011903557251 0.01765265  0.00055342  0.0658912 0.0000
  8   -491.4628759797  -0.003916510135 0.00766618  0.00019933  0.0570687 0.0000
  9   -491.4637713325  -0.000895352848 0.00133076  0.00006753  0.0564100 0.0000
 10   -491.4645094135  -0.000738080948 0.69097322  0.00840469  0.0566694 0.0000
 11   -491.0012166335   0.463292779989 0.04360476  0.00045857  0.2628581 0.7000
 12   -491.0270734512  -0.025856817714 0.04397900  0.00047433  0.2425272 0.7000
 13   -491.0512550081  -0.024181556872 0.03616338  0.00039078  0.2216198 0.7000
 14   -491.0699777981  -0.018722789998 0.02810020  0.00030412  0.2045277 0.7000
 15   -491.0840467769  -0.014068978805 0.19581647  0.00280168  0.1913013 0.7000
 16   -491.4802686757  -0.396221898867 0.45690509  0.00600159  0.0530357 0.0000
 17   -491.4009249588   0.079343716943 0.00988402  0.00035418  0.1149130 0.7000
 18   -491.4142222827  -0.013297323944 0.00995386  0.00039445  0.1006252 0.7000
 19   -491.4270347749  -0.012812492184 0.02738164  0.00114942  0.0885625 0.0000
               *** Restarting incremental Fock matrix formation ***
                                   *** Resetting DIIS ***
 20   -491.4571089994  -0.030074224453 0.69097324  0.00869319  0.0702604 0.0000

 WARNING: the maximum gradient error descreased on average only by a factor   1.1
          during the last 20 iterations

                      *** Initiating the TRAH-SCF procedure ***


TRAH GRIDX
----------

General Integration Accuracy     IntAcc      ... 3.067
Radial Grid Type                 RadialGrid  ... OptM3 with GC (2021)
Angular Grid (max. ang.)         AngularGrid ... 1 (Lebedev-50)
Angular grid pruning method      GridPruning ... 4 (adaptive)
Weight generation scheme         WeightScheme... Becke
Basis function cutoff            BFCut       ... 1.0000e-11
Integration weight cutoff        WCut        ... 1.0000e-14
Angular grids for H and He will be reduced by one unit
Partially contracted basis set               ... on
Rotationally invariant grid construction     ... off

Total number of grid points                  ...     5625
Total number of batches                      ...      100
Average number of points per batch           ...       56
Average number of grid points per atom       ...      331


TRAH GRID
---------

General Integration Accuracy     IntAcc      ... 3.467
Radial Grid Type                 RadialGrid  ... OptM3 with GC (2021)
Angular Grid (max. ang.)         AngularGrid ... 1 (Lebedev-50)
Angular grid pruning method      GridPruning ... 4 (adaptive)
Weight generation scheme         WeightScheme... Becke
Basis function cutoff            BFCut       ... 1.0000e-11
Integration weight cutoff        WCut        ... 1.0000e-14
Angular grids for H and He will be reduced by one unit
Partially contracted basis set               ... off
Rotationally invariant grid construction     ... off

Total number of grid points                  ...    12345
Total number of batches                      ...      202
Average number of points per batch           ...       61
Average number of grid points per atom       ...      726

 --------------------------------------------------------------------------------------------
   Iter.        energy            ||Error||_2        Shift      TRadius  Mac/Mic        Rej.
 --------------------------------------------------------------------------------------------
WARNING: 39 diagonal Hessian elements are negative!
    0       -490.954756316954     1.693272e+00                     0.400 (TRAH MAcro)   No
WARNING : negative HOMO - LUMO gap : -0.960596
    0     dE    -1.916720e-01     1.134921e+00    -3.6621e-01      0.216 (TRAH MIcro)
    0     dE    -2.417111e-01     7.277405e-01    -4.4396e-01      0.298 (TRAH MIcro)
    0     dE    -1.742400e-01     3.130538e-01    -5.6125e+00      0.143 (TRAH MIcro)
    0     dE    -1.759839e-01     4.571216e-02    -5.6635e+00      0.143 (TRAH MIcro)
    0     dE    -1.760223e-01     2.311967e-02    -5.6660e+00      0.143 (TRAH MIcro)
    0     dE    -1.759895e-01     2.724309e-03    -5.6666e+00      0.143 (TRAH MIcro)
WARNING: 34 diagonal Hessian elements are negative!
    1       -491.130437516859     8.058948e-01                     0.480 (TRAH MAcro)   No
WARNING : negative HOMO - LUMO gap : -0.817579
    1     dE    -5.503674e-02     3.686376e-01    -1.0813e-01      0.134 (TRAH MIcro)
    1     dE    -6.617932e-02     2.773661e-01    -1.2816e-01      0.181 (TRAH MIcro)
    1     dE    -6.018794e-02     1.668868e-01    -2.1288e+00      0.122 (TRAH MIcro)
    1     dE    -4.717574e-02     9.189211e-02    -4.8748e+00      0.080 (TRAH MIcro)
    1     dE    -4.755597e-02     1.287228e-02    -4.9095e+00      0.080 (TRAH MIcro)
    1     dE    -4.756994e-02     6.412474e-03    -4.9104e+00      0.080 (TRAH MIcro)
WARNING: 31 diagonal Hessian elements are negative!
    2       -491.178016742809     3.957636e-01                     0.576 (TRAH MAcro)   No
WARNING : negative HOMO - LUMO gap : -0.746687
    2     dE    -1.614376e-02     1.737019e-01    -3.2077e-02      0.081 (TRAH MIcro)
    2     dE    -1.978255e-02     3.141450e-01    -3.8981e-02      0.122 (TRAH MIcro)
    2     dE    -3.873707e-01     1.890751e+00    -2.2509e+00      0.576 (TRAH MIcro)
    2     dE    -1.289392e-02     5.063226e-02    -4.6669e+00      0.044 (TRAH MIcro)
    2     dE    -1.311549e-02     8.672790e-03    -4.7152e+00      0.044 (TRAH MIcro)
WARNING: 26 diagonal Hessian elements are negative!
    3       -491.191140308891     2.083750e-01                     0.691 (TRAH MAcro)   No
WARNING : negative HOMO - LUMO gap : -0.713334
    3     dE    -5.340485e-03     1.033822e-01    -1.0653e-02      0.051 (TRAH MIcro)
    3     dE    -9.190208e-03     1.094787e+00    -1.7403e-02      0.237 (TRAH MIcro)
    3     dE    -5.664868e-01     1.710930e+00    -2.3549e+00      0.691 (TRAH MIcro)
    3     dE    -3.780522e-03     3.633270e-02    -5.0128e+00      0.023 (TRAH MIcro)
    3     dE    -3.904333e-03     5.073319e-03    -5.0897e+00      0.024 (TRAH MIcro)
WARNING: 26 diagonal Hessian elements are negative!
    4       -491.195046355391     1.219409e-01                     0.829 (TRAH MAcro)   No
WARNING : negative HOMO - LUMO gap : -0.697849
    4     dE    -2.146156e-03     7.376664e-02    -4.2870e-03      0.035 (TRAH MIcro)
    4     dE    -2.380440e-02     4.886123e+00    -3.5227e-02      0.829 (TRAH MIcro)
    4     dE    -3.190465e-03     4.701159e-02    -2.6547e+00      0.038 (TRAH MIcro)
    4     dE    -1.300548e-02     2.707592e-02    -2.8113e+00      0.091 (TRAH MIcro)
    4     dE    -2.066204e-02     1.215656e-02    -2.8218e+00      0.117 (TRAH MIcro)
    4     dE    -2.481952e-02     4.192334e-03    -2.8230e+00      0.129 (TRAH MIcro)
WARNING: 22 diagonal Hessian elements are negative!
    5       -491.219063999796     3.427580e-01                     0.995 (TRAH MAcro)   No
WARNING : negative HOMO - LUMO gap : -0.644878
    5     dE    -1.244363e+00     9.728114e-01    -2.6881e+00      0.901 (TRAH MIcro)
    5     dE    -1.437443e+00     1.622757e-01    -2.8098e+00      0.953 (TRAH MIcro)
    5     dE    -1.441851e+00     3.013716e-02    -2.8120e+00      0.954 (TRAH MIcro)
    5     dE    -1.442134e+00     8.810056e-03    -2.8121e+00      0.954 (TRAH MIcro)
WARNING: 7 diagonal Hessian elements are negative!
    6       -491.561336003220     8.741427e-01                     0.697 (TRAH MAcro)   No
WARNING : negative HOMO - LUMO gap : -0.147982
    6     dE    -6.109159e-02     8.951056e-01    -1.1961e-01      0.147 (TRAH MIcro)
    6     dE    -1.001348e-01     1.652217e-01    -1.8381e-01      0.299 (TRAH MIcro)
    6     dE    -1.029238e-01     6.543163e-02    -1.8753e-01      0.313 (TRAH MIcro)
    6     dE    -1.044092e-01     6.442654e-02    -1.8894e-01      0.324 (TRAH MIcro)
    6     dE    -1.093258e-01     1.292626e-01    -1.9180e-01      0.374 (TRAH MIcro)
    6     dE    -1.597421e-01     2.044526e-01    -2.5857e-01      0.697 (TRAH MIcro)
    6     dE    -1.352905e-01     6.458397e-02    -2.8921e-01      0.538 (TRAH MIcro)
    6     dE    -1.391613e-01     3.539491e-02    -2.8991e-01      0.560 (TRAH MIcro)
    6     dE    -1.408860e-01     2.071783e-02    -2.9019e-01      0.570 (TRAH MIcro)
    6     dE    -1.437702e-01     3.745778e-02    -2.9058e-01      0.586 (TRAH MIcro)
    6     dE    -1.482112e-01     4.103306e-02    -2.9106e-01      0.610 (TRAH MIcro)
    6     dE    -1.603569e-01     6.535587e-02    -2.9198e-01      0.672 (TRAH MIcro)
    6     dE    -1.062756e-01     3.874946e-02    -3.8316e-01      0.321 (TRAH MIcro)
    6     dE    -9.663720e-02     5.130608e-02    -6.0993e-01      0.246 (TRAH MIcro)
    7       -491.633511314820     1.719365e-01                     0.697 (TRAH MAcro)   No
WARNING : small    HOMO - LUMO gap : 0.014248
    7     dE    -2.446876e-03     3.107135e-01    -4.8893e-03      0.030 (TRAH MIcro)
    7     dE    -3.450154e-03     1.434602e-01    -6.8848e-03      0.048 (TRAH MIcro)
    7     dE    -4.510502e-03     4.737276e-02    -8.9860e-03      0.062 (TRAH MIcro)
    7     dE    -4.685503e-03     1.868909e-02    -9.3284e-03      0.068 (TRAH MIcro)
    7     dE    -4.706258e-03     6.930331e-03    -9.3680e-03      0.069 (TRAH MIcro)
    8       -491.638360673938     1.432641e-02                     0.836 (TRAH MAcro)   No
WARNING : small    HOMO - LUMO gap : 0.005834
    8     dE    -1.719029e-05     1.702070e-02    -3.4380e-05      0.002 (TRAH MIcro)
    8     dE    -2.036180e-05     1.280397e-02    -4.0723e-05      0.003 (TRAH MIcro)
    8     dE    -4.903026e-05     8.947415e-03    -9.8049e-05      0.011 (TRAH MIcro)
    8     dE    -5.648523e-05     2.677764e-03    -1.1295e-04      0.014 (TRAH MIcro)
    8     dE    -5.696674e-05     1.121731e-03    -1.1391e-04      0.014 (TRAH MIcro)
    9       -491.638418397708     1.178424e-03                     1.003 (TRAH MAcro)   No
WARNING : small    HOMO - LUMO gap : 0.004982
    9     dE    -6.917634e-08     1.224106e-03    -1.3837e-07      0.000 (TRAH MIcro)
    9     dE    -7.908830e-08     1.067893e-03    -1.5818e-07      0.000 (TRAH MIcro)
    9     dE    -1.655825e-07     5.213250e-04    -3.3117e-07      0.001 (TRAH MIcro)
    9     dE    -1.880036e-07     1.863876e-04    -3.7601e-07      0.001 (TRAH MIcro)
    9     dE    -1.894220e-07     8.454228e-05    -3.7884e-07      0.001 (TRAH MIcro)
   10       -491.638418589294     8.459572e-05                           (NR   MAcro)
WARNING : small    HOMO - LUMO gap : 0.004940
   10     dE    -8.401249e-11     7.036201e-05                           (NR   MIcro)
   10     dE    -2.490967e-10     4.433722e-05                           (NR   MIcro)
   10     dE    -3.243297e-10     1.198127e-05                           (NR   MIcro)
   10     dE    -3.330424e-10     3.119978e-06                           (NR   MIcro)
   10     dE    -3.343555e-10     2.269217e-06                           (NR   MIcro)
   10     dE    -3.345617e-10     1.073988e-06                           (NR   MIcro)
   10     dE    -3.345960e-10     5.208059e-07                           (NR   MIcro)
   11       -491.638418589405     5.244609e-07                           (NR   MAcro)
WARNING : small    HOMO - LUMO gap : 0.004940

               *****************************************************
               *                     SUCCESS                       *
               *           SCF CONVERGED AFTER 101 CYCLES          *
               *****************************************************

Old exchange energy                            =    -12.499502196 Eh
New exchange energy                            =    -12.499459679 Eh
Exchange energy change after final integration =      0.000042517 Eh
Total energy after final integration           =   -491.638376073 Eh
Final COS-X integration done in                =    36.367 sec

----------------
TOTAL SCF ENERGY
----------------

Total Energy       :         -491.63837607 Eh          -13378.16035 eV

Components:
Nuclear Repulsion  :          509.98867599 Eh           13877.49739 eV
Electronic Energy  :        -1001.62705207 Eh          -27255.65774 eV
One Electron Energy:        -1668.36073079 Eh          -45398.40349 eV
Two Electron Energy:          666.73367872 Eh           18142.74576 eV
Max COSX asymmetry :            0.00000392 Eh               0.00011 eV

Virial components:
Potential Energy   :         -979.09694883 Eh          -26642.58246 eV
Kinetic Energy     :          487.45857276 Eh           13264.42211 eV
Virial Ratio       :            2.00857468


DFT components:
N(Alpha)           :       36.000030257661 electrons
N(Beta)            :       36.000030257661 electrons
N(Total)           :       72.000060515323 electrons
E(X)               :      -49.904575446105 Eh       
E(C)               :       -2.921368375436 Eh       
E(XC)              :      -52.825943821541 Eh       
DFET-embed. en.    :        0.000000000000 Eh       

---------------
SCF CONVERGENCE
---------------

  Last Energy change         ...   -1.1113e-10  Tolerance :   1.0000e-08
  Last Orbital Gradient      ...    5.2446e-07  Tolerance :   1.0000e-05
  Last Orbital Rotation      ...    2.6911e-05

             **** THE GBW FILE WAS UPDATED (opt4.gbw) ****
             **** DENSITY opt4.scfp WAS UPDATED ****
             **** ENERGY FILE WAS UPDATED (opt4.en.tmp) ****
             **** THE GBW FILE WAS UPDATED (opt4.gbw) ****
             **** DENSITY opt4.scfp WAS UPDATED ****
----------------
ORBITAL ENERGIES
----------------

  NO   OCC          E(Eh)            E(eV) 
   0   2.0000     -19.295411      -525.0548 
   1   2.0000     -19.295000      -525.0436 
   2   2.0000     -14.695366      -399.8812 
   3   2.0000     -14.539823      -395.6487 
   4   2.0000     -10.434035      -283.9245 
   5   2.0000     -10.401759      -283.0462 
   6   2.0000     -10.369416      -282.1661 
   7   2.0000     -10.368633      -282.1449 
   8   2.0000     -10.365698      -282.0650 
   9   2.0000     -10.361419      -281.9485 
  10   2.0000      -1.357390       -36.9365 
  11   2.0000      -1.184746       -32.2386 
  12   2.0000      -1.113164       -30.2907 
  13   2.0000      -1.016277       -27.6543 
  14   2.0000      -0.948416       -25.8077 
  15   2.0000      -0.898662       -24.4538 
  16   2.0000      -0.838142       -22.8070 
  17   2.0000      -0.787021       -21.4159 
  18   2.0000      -0.760239       -20.6872 
  19   2.0000      -0.711943       -19.3730 
  20   2.0000      -0.684048       -18.6139 
  21   2.0000      -0.677274       -18.4296 
  22   2.0000      -0.674993       -18.3675 
  23   2.0000      -0.645759       -17.5720 
  24   2.0000      -0.628622       -17.1057 
  25   2.0000      -0.601947       -16.3798 
  26   2.0000      -0.597885       -16.2693 
  27   2.0000      -0.570186       -15.5155 
  28   2.0000      -0.542432       -14.7603 
  29   2.0000      -0.524076       -14.2608 
  30   2.0000      -0.494470       -13.4552 
  31   2.0000      -0.443187       -12.0597 
  32   2.0000      -0.442324       -12.0363 
  33   2.0000      -0.433332       -11.7916 
  34   2.0000      -0.429132       -11.6773 
  35   2.0000      -0.366574        -9.9750 
  36   0.0000      -0.361634        -9.8406 
  37   0.0000      -0.220109        -5.9895 
  38   0.0000      -0.166820        -4.5394 
  39   0.0000      -0.142922        -3.8891 
  40   0.0000      -0.081210        -2.2098 
  41   0.0000      -0.066030        -1.7968 
  42   0.0000      -0.026609        -0.7241 
  43   0.0000      -0.009731        -0.2648 
  44   0.0000      -0.009232        -0.2512 
  45   0.0000       0.003480         0.0947 
  46   0.0000       0.032290         0.8787 
  47   0.0000       0.033893         0.9223 
  48   0.0000       0.087853         2.3906 
  49   0.0000       0.113360         3.0847 
  50   0.0000       0.121975         3.3191 
  51   0.0000       0.149239         4.0610 
  52   0.0000       0.154192         4.1958 
  53   0.0000       0.158300         4.3076 
  54   0.0000       0.200790         5.4638 
  55   0.0000       0.237590         6.4652 
  56   0.0000       0.242872         6.6089 
  57   0.0000       0.253709         6.9038 
  58   0.0000       0.295005         8.0275 
  59   0.0000       0.301448         8.2028 
  60   0.0000       0.319531         8.6949 
  61   0.0000       0.320240         8.7142 
  62   0.0000       0.321862         8.7583 
  63   0.0000       0.348669         9.4878 
  64   0.0000       0.354956         9.6588 
  65   0.0000       0.369265        10.0482 
  66   0.0000       0.376020        10.2320 
  67   0.0000       0.379984        10.3399 
  68   0.0000       0.406417        11.0592 
  69   0.0000       0.440121        11.9763 
  70   0.0000       0.450061        12.2468 
  71   0.0000       0.479284        13.0420 
  72   0.0000       0.496843        13.5198 
  73   0.0000       0.518860        14.1189 
  74   0.0000       0.529999        14.4220 
  75   0.0000       0.541514        14.7353 
  76   0.0000       0.552310        15.0291 
  77   0.0000       0.563134        15.3236 
  78   0.0000       0.569642        15.5008 
  79   0.0000       0.592956        16.1351 
  80   0.0000       0.598481        16.2855 
  81   0.0000       0.627872        17.0853 
  82   0.0000       0.636992        17.3334 
  83   0.0000       0.667276        18.1575 
  84   0.0000       0.680764        18.5245 
  85   0.0000       0.703930        19.1549 
  86   0.0000       0.750515        20.4226 
  87   0.0000       0.795868        21.6567 
  88   0.0000       0.823760        22.4157 
  89   0.0000       0.838504        22.8169 
  90   0.0000       0.864221        23.5166 
  91   0.0000       0.878577        23.9073 
  92   0.0000       0.885723        24.1018 
  93   0.0000       0.943568        25.6758 
  94   0.0000       0.971515        26.4363 
  95   0.0000       1.025402        27.9026 
  96   0.0000       1.042056        28.3558 
  97   0.0000       1.060944        28.8697 
  98   0.0000       1.065783        29.0014 
  99   0.0000       1.089580        29.6490 
 100   0.0000       1.095441        29.8085 
 101   0.0000       1.112343        30.2684 
 102   0.0000       1.133320        30.8392 
 103   0.0000       1.168722        31.8025 
 104   0.0000       1.172478        31.9048 
 105   0.0000       1.201094        32.6834 
 106   0.0000       1.239433        33.7267 
 107   0.0000       1.239442        33.7269 
 108   0.0000       1.239442        33.7269 
 109   0.0000       1.256323        34.1863 
 110   0.0000       1.287559        35.0363 
 111   0.0000       1.323126        36.0041 
 112   0.0000       1.354476        36.8572 
 113   0.0000       1.422050        38.6959 
 114   0.0000       1.493947        40.6524 
 115   0.0000       1.525740        41.5175 
 116   0.0000       1.533192        41.7203 
 117   0.0000       1.559851        42.4457 
 118   0.0000       1.575652        42.8757 
 119   0.0000       1.575755        42.8785 
 120   0.0000       1.597047        43.4579 
 121   0.0000       1.608372        43.7660 
 122   0.0000       1.621624        44.1266 
 123   0.0000       1.641103        44.6567 
 124   0.0000       1.646645        44.8075 
 125   0.0000       1.653980        45.0071 
 126   0.0000       1.698101        46.2077 
 127   0.0000       1.714341        46.6496 
 128   0.0000       1.744041        47.4578 
 129   0.0000       1.793106        48.7929 
 130   0.0000       1.820665        49.5428 
 131   0.0000       1.845893        50.2293 
 132   0.0000       1.869856        50.8814 
 133   0.0000       1.910281        51.9814 
 134   0.0000       1.957913        53.2775 
 135   0.0000       1.967065        53.5266 
 136   0.0000       1.984886        54.0115 
 137   0.0000       2.029753        55.2324 
 138   0.0000       2.033053        55.3222 
 139   0.0000       2.056544        55.9614 
 140   0.0000       2.126087        57.8538 
 141   0.0000       2.136658        58.1414 
 142   0.0000       2.161609        58.8204 
 143   0.0000       2.182718        59.3948 
 144   0.0000       2.200657        59.8829 
 145   0.0000       2.241542        60.9955 
 146   0.0000       2.269614        61.7593 
 147   0.0000       2.308629        62.8210 
 148   0.0000       2.375340        64.6363 
 149   0.0000       2.390416        65.0465 
 150   0.0000       2.435840        66.2826 
 151   0.0000       2.470599        67.2284 
 152   0.0000       2.485668        67.6385 
 153   0.0000       2.500967        68.0548 
 154   0.0000       2.515144        68.4405 
 155   0.0000       2.545324        69.2618 
 156   0.0000       2.564154        69.7742 
 157   0.0000       2.573181        70.0198 
 158   0.0000       2.580224        70.2115 
 159   0.0000       2.610829        71.0443 
 160   0.0000       2.634365        71.6847 
 161   0.0000       2.701273        73.5054 
 162   0.0000       2.773731        75.4771 
 163   0.0000       2.889888        78.6379 
 164   0.0000       2.900202        78.9185 
 165   0.0000       2.916203        79.3539 
 166   0.0000       2.956118        80.4401 
 167   0.0000       3.078182        83.7616 
 168   0.0000       3.112171        84.6865 
 169   0.0000       3.156939        85.9047 
 170   0.0000       3.262445        88.7756 
 171   0.0000       3.380001        91.9745 
 172   0.0000       3.435092        93.4736 
 173   0.0000       3.643039        99.1321 
 174   0.0000       3.653886        99.4273 

                    ********************************
                    * MULLIKEN POPULATION ANALYSIS *
                    ********************************

-----------------------
MULLIKEN ATOMIC CHARGES
-----------------------
   0 C :   -0.034797
   1 C :    0.012485
   2 C :    0.065314
   3 C :    0.071586
   4 C :   -0.009530
   5 C :    0.181796
   6 H :    0.023649
   7 H :    0.051448
   8 H :    0.058261
   9 H :    0.053564
  10 H :    0.262162
  11 N :    0.097316
  12 H :    0.163444
  13 H :    0.180115
  14 N :    0.255724
  15 O :   -0.254546
  16 O :   -0.177991
Sum of atomic charges:    1.0000000

--------------------------------
MULLIKEN REDUCED ORBITAL CHARGES
--------------------------------
  0 C s       :     3.028876  s :     3.028876
      pz      :     0.997267  p :     2.943845
      px      :     1.026017
      py      :     0.920561
      dz2     :     0.010180  d :     0.062076
      dxz     :     0.006485
      dyz     :     0.015055
      dx2y2   :     0.015001
      dxy     :     0.015354
  1 C s       :     3.263567  s :     3.263567
      pz      :     0.900517  p :     2.691900
      px      :     0.897315
      py      :     0.894067
      dz2     :     0.003806  d :     0.032049
      dxz     :     0.004048
      dyz     :     0.007804
      dx2y2   :     0.006699
      dxy     :     0.009691
  2 C s       :     3.174743  s :     3.174743
      pz      :     0.913092  p :     2.724941
      px      :     0.896771
      py      :     0.915078
      dz2     :     0.005281  d :     0.035002
      dxz     :     0.004869
      dyz     :     0.007940
      dx2y2   :     0.007947
      dxy     :     0.008964
  3 C s       :     3.183293  s :     3.183293
      pz      :     0.900804  p :     2.710804
      px      :     0.913444
      py      :     0.896555
      dz2     :     0.005542  d :     0.034318
      dxz     :     0.005654
      dyz     :     0.006617
      dx2y2   :     0.008761
      dxy     :     0.007744
  4 C s       :     3.313075  s :     3.313075
      pz      :     0.854002  p :     2.662144
      px      :     0.832855
      py      :     0.975288
      dz2     :     0.004340  d :     0.034311
      dxz     :     0.004866
      dyz     :     0.007695
      dx2y2   :     0.009561
      dxy     :     0.007849
  5 C s       :     3.016389  s :     3.016389
      pz      :     1.004534  p :     2.756851
      px      :     0.959698
      py      :     0.792619
      dz2     :     0.006202  d :     0.044964
      dxz     :     0.006554
      dyz     :     0.010179
      dx2y2   :     0.008215
      dxy     :     0.013814
  6 H s       :     0.953089  s :     0.953089
      pz      :     0.009464  p :     0.023263
      px      :     0.009738
      py      :     0.004061
  7 H s       :     0.925514  s :     0.925514
      pz      :     0.005287  p :     0.023038
      px      :     0.008842
      py      :     0.008910
  8 H s       :     0.918689  s :     0.918689
      pz      :     0.004612  p :     0.023050
      px      :     0.003370
      py      :     0.015068
  9 H s       :     0.922287  s :     0.922287
      pz      :     0.009581  p :     0.024149
      px      :     0.010260
      py      :     0.004309
 10 H s       :     0.737838  s :     0.737838
      pz      :     0.000000  p :     0.000000
      px      :     0.000000
      py      :     0.000000
 11 N s       :     3.282356  s :     3.282356
      pz      :     1.281969  p :     3.604171
      px      :     1.220502
      py      :     1.101700
      dz2     :     0.001603  d :     0.016157
      dxz     :     0.002294
      dyz     :     0.003986
      dx2y2   :     0.003999
      dxy     :     0.004276
 12 H s       :     0.792094  s :     0.792094
      pz      :     0.017565  p :     0.044462
      px      :     0.017536
      py      :     0.009361
 13 H s       :     0.769047  s :     0.769047
      pz      :     0.013903  p :     0.050838
      px      :     0.020955
      py      :     0.015981
 14 N s       :     3.287521  s :     3.287521
      pz      :     1.130017  p :     3.340055
      px      :     1.139133
      py      :     1.070906
      dz2     :     0.020428  d :     0.116700
      dxz     :     0.012244
      dyz     :     0.028430
      dx2y2   :     0.024594
      dxy     :     0.031004
 15 O s       :     3.863962  s :     3.863962
      pz      :     1.554596  p :     4.369226
      px      :     1.677510
      py      :     1.137121
      dz2     :     0.002662  d :     0.021358
      dxz     :     0.000460
      dyz     :     0.006136
      dx2y2   :     0.007391
      dxy     :     0.004709
 16 O s       :     3.867155  s :     3.867155
      pz      :     1.259186  p :     4.287186
      px      :     1.334434
      py      :     1.693566
      dz2     :     0.005650  d :     0.023650
      dxz     :     0.006940
      dyz     :     0.003708
      dx2y2   :     0.003275
      dxy     :     0.004077


                     *******************************
                     * LOEWDIN POPULATION ANALYSIS *
                     *******************************

----------------------
LOEWDIN ATOMIC CHARGES
----------------------
   0 C :    0.073973
   1 C :    0.012950
   2 C :    0.030171
   3 C :    0.062049
   4 C :    0.041752
   5 C :   -0.021368
   6 H :    0.052675
   7 H :    0.059697
   8 H :    0.059267
   9 H :    0.063541
  10 H :    0.262162
  11 N :    0.152617
  12 H :    0.111522
  13 H :    0.090562
  14 N :    0.282943
  15 O :   -0.193812
  16 O :   -0.140701

-------------------------------
LOEWDIN REDUCED ORBITAL CHARGES
-------------------------------
  0 C s       :     2.841304  s :     2.841304
      pz      :     0.955104  p :     2.938048
      px      :     0.996077
      py      :     0.986867
      dz2     :     0.022028  d :     0.146675
      dxz     :     0.016393
      dyz     :     0.034983
      dx2y2   :     0.036949
      dxy     :     0.036321
  1 C s       :     2.868876  s :     2.868876
      pz      :     0.990382  p :     3.033825
      px      :     0.992223
      py      :     1.051220
      dz2     :     0.008987  d :     0.084349
      dxz     :     0.009724
      dyz     :     0.020104
      dx2y2   :     0.019559
      dxy     :     0.025974
  2 C s       :     2.864290  s :     2.864290
      pz      :     0.968822  p :     3.015403
      px      :     0.991659
      py      :     1.054923
      dz2     :     0.012195  d :     0.090135
      dxz     :     0.012743
      dyz     :     0.020465
      dx2y2   :     0.021606
      dxy     :     0.023125
  3 C s       :     2.873416  s :     2.873416
      pz      :     0.950500  p :     2.977588
      px      :     0.978806
      py      :     1.048282
      dz2     :     0.012265  d :     0.086947
      dxz     :     0.015833
      dyz     :     0.016243
      dx2y2   :     0.022326
      dxy     :     0.020280
  4 C s       :     2.868128  s :     2.868128
      pz      :     0.963161  p :     3.000981
      px      :     0.992195
      py      :     1.045624
      dz2     :     0.010036  d :     0.089139
      dxz     :     0.011570
      dyz     :     0.019760
      dx2y2   :     0.026015
      dxy     :     0.021758
  5 C s       :     2.868422  s :     2.868422
      pz      :     1.032144  p :     3.037802
      px      :     0.984580
      py      :     1.021078
      dz2     :     0.014173  d :     0.115145
      dxz     :     0.017430
      dyz     :     0.025557
      dx2y2   :     0.023412
      dxy     :     0.034573
  6 H s       :     0.877707  s :     0.877707
      pz      :     0.028081  p :     0.069618
      px      :     0.028897
      py      :     0.012641
  7 H s       :     0.872338  s :     0.872338
      pz      :     0.016166  p :     0.067964
      px      :     0.026141
      py      :     0.025657
  8 H s       :     0.871542  s :     0.871542
      pz      :     0.014509  p :     0.069192
      px      :     0.011011
      py      :     0.043672
  9 H s       :     0.862859  s :     0.862859
      pz      :     0.028874  p :     0.073600
      px      :     0.031138
      py      :     0.013589
 10 H s       :     0.737838  s :     0.737838
      pz      :     0.000000  p :     0.000000
      px      :     0.000000
      py      :     0.000000
 11 N s       :     3.032074  s :     3.032074
      pz      :     1.309284  p :     3.772143
      px      :     1.280274
      py      :     1.182586
      dz2     :     0.004068  d :     0.043167
      dxz     :     0.005540
      dyz     :     0.010404
      dx2y2   :     0.011243
      dxy     :     0.011913
 12 H s       :     0.768426  s :     0.768426
      pz      :     0.049598  p :     0.120052
      px      :     0.049278
      py      :     0.021176
 13 H s       :     0.761751  s :     0.761751
      pz      :     0.043053  p :     0.147687
      px      :     0.064067
      py      :     0.040566
 14 N s       :     3.046595  s :     3.046595
      pz      :     1.140154  p :     3.425901
      px      :     1.151118
      py      :     1.134630
      dz2     :     0.037817  d :     0.244560
      dxz     :     0.027863
      dyz     :     0.061125
      dx2y2   :     0.053941
      dxy     :     0.063813
 15 O s       :     3.611832  s :     3.611832
      pz      :     1.566698  p :     4.540736
      px      :     1.670261
      py      :     1.303778
      dz2     :     0.005533  d :     0.041244
      dxz     :     0.000752
      dyz     :     0.010927
      dx2y2   :     0.017151
      dxy     :     0.006881
 16 O s       :     3.613434  s :     3.613434
      pz      :     1.347030  p :     4.482105
      px      :     1.418600
      py      :     1.716476
      dz2     :     0.008081  d :     0.045162
      dxz     :     0.016310
      dyz     :     0.007396
      dx2y2   :     0.005677
      dxy     :     0.007698


                      *****************************
                      * MAYER POPULATION ANALYSIS *
                      *****************************

  NA   - Mulliken gross atomic population
  ZA   - Total nuclear charge
  QA   - Mulliken gross atomic charge
  VA   - Mayer's total valence
  BVA  - Mayer's bonded valence
  FA   - Mayer's free valence

  ATOM       NA         ZA         QA         VA         BVA        FA
  0 C      6.0348     6.0000    -0.0348     4.1110     4.1110    -0.0000
  1 C      5.9875     6.0000     0.0125     3.8202     3.8202    -0.0000
  2 C      5.9347     6.0000     0.0653     3.8064     3.8064    -0.0000
  3 C      5.9284     6.0000     0.0716     3.7530     3.7530    -0.0000
  4 C      6.0095     6.0000    -0.0095     3.8608     3.8608     0.0000
  5 C      5.8182     6.0000     0.1818     3.7535     3.7535    -0.0000
  6 H      0.9764     1.0000     0.0236     0.9946     0.9946    -0.0000
  7 H      0.9486     1.0000     0.0514     0.9820     0.9820    -0.0000
  8 H      0.9417     1.0000     0.0583     0.9826     0.9826    -0.0000
  9 H      0.9464     1.0000     0.0536     1.0181     1.0181    -0.0000
 10 H      0.7378     1.0000     0.2622     0.9313     0.9313     0.0000
 11 N      6.9027     7.0000     0.0973     3.5303     3.5303    -0.0000
 12 H      0.8366     1.0000     0.1634     0.9853     0.9853    -0.0000
 13 H      0.8199     1.0000     0.1801     1.0332     1.0332     0.0000
 14 N      6.7443     7.0000     0.2557     3.9444     3.9444     0.0000
 15 O      8.2545     8.0000    -0.2545     1.9411     1.9411     0.0000
 16 O      8.1780     8.0000    -0.1780     2.0381     2.0381     0.0000

  Mayer bond orders larger than 0.100000
B(  0-C ,  1-C ) :   1.1716 B(  0-C ,  5-C ) :   1.1519 B(  0-C , 11-N ) :   1.5316 
B(  1-C ,  2-C ) :   1.4632 B(  1-C ,  6-H ) :   0.9896 B(  1-C , 10-H ) :   0.1503 
B(  2-C ,  3-C ) :   1.2716 B(  2-C ,  7-H ) :   0.9850 B(  3-C ,  4-C ) :   1.2469 
B(  3-C ,  8-H ) :   0.9851 B(  3-C , 10-H ) :   0.2367 B(  4-C ,  5-C ) :   1.4687 
B(  4-C ,  9-H ) :   0.9795 B(  5-C , 10-H ) :   0.1089 B(  5-C , 14-N ) :   0.8745 
B( 10-H , 11-N ) :   0.2539 B( 11-N , 12-H ) :   0.9087 B( 11-N , 13-H ) :   0.8686 
B( 13-H , 15-O ) :   0.1007 B( 14-N , 15-O ) :   1.4437 B( 14-N , 16-O ) :   1.5913 
B( 15-O , 16-O ) :   0.2828 

-------
TIMINGS
-------

Total SCF time: 0 days 0 hours 17 min 26 sec 

Total time                  ....    1046.742 sec
Sum of individual times     ....    1034.366 sec  ( 98.8%)

Fock matrix formation       ....    1020.698 sec  ( 97.5%)
  Split-RI-J                ....     125.056 sec  ( 12.3% of F)
  Chain of spheres X        ....     747.801 sec  ( 73.3% of F)
  XC integration            ....     138.781 sec  ( 13.6% of F)
    Basis function eval.    ....      43.771 sec  ( 31.5% of XC)
    Density eval.           ....      39.569 sec  ( 28.5% of XC)
    XC-Functional eval.     ....       7.344 sec  (  5.3% of XC)
    XC-Potential eval.      ....      34.669 sec  ( 25.0% of XC)
Diagonalization             ....       0.302 sec  (  0.0%)
Density matrix formation    ....       0.057 sec  (  0.0%)
Population analysis         ....       0.088 sec  (  0.0%)
Initial guess               ....       2.451 sec  (  0.2%)
Orbital Transformation      ....       0.361 sec  (  0.0%)
Orbital Orthonormalization  ....       0.000 sec  (  0.0%)
DIIS solution               ....       0.575 sec  (  0.1%)
SOSCF solution              ....       0.000 sec  (  0.0%)
Grid generation             ....       9.834 sec  (  0.9%)

Maximum memory used throughout the entire SCF-calculation: 74.8 MB


-------------------------------------------------------------------------------
                          DFT DISPERSION CORRECTION                            
                                                                               
                                 DFTD4 V2.5                                    
-------------------------------------------------------------------------------
The B3LYP functional is recognized
Active option DFTDOPT                   ...         5   

Starting D4
-------------------------   ----------------
Dispersion correction           -0.026270358
-------------------------   ----------------


-------------------------   --------------------
FINAL SINGLE POINT ENERGY      -491.664646430642
-------------------------   --------------------

------------------------------------------------------------------------------
                         ORCA SCF GRADIENT CALCULATION
------------------------------------------------------------------------------

 ... reading COSX grid (gridx3)
Gradient of the Kohn-Sham DFT energy:
Kohn-Sham wavefunction type      ... RKS
Hartree-Fock exchange scaling    ...    0.200
Number of operators              ...    1
Number of atoms                  ...   17
Basis set dimensions             ...  175
Integral neglect threshold       ... 2.5e-11
Integral primitive cutoff        ... 2.5e-12
SHARK Integral package           ... ON

Nuc. rep. gradient       (SHARK) ... done (  0.0 sec)
HCore & Overlap gradient (SHARK) ... done (  0.9 sec)
RI-J gradient            (SHARK) ... done (  6.7 sec)
COSX-gradient                    ... done ( 43.1 sec)
Exchange-correlation gradient    ... done
Dispersion correction            ... Starting D4


------------------- 
Dispersion Gradient 
------------------- 
   1  :   -0.000245058    0.000230947   -0.000272619
   2  :   -0.000436969   -0.000100509   -0.000345432
   3  :   -0.000340073   -0.000486037   -0.000157014
   4  :   -0.000110457   -0.000622042    0.000076301
   5  :    0.000169580   -0.000526045    0.000288941
   6  :    0.000232283    0.000100477    0.000170693
   7  :   -0.000153543    0.000012442   -0.000134425
   8  :   -0.000108385   -0.000119607   -0.000059687
   9  :   -0.000003955   -0.000170906    0.000043585
  10  :    0.000122572   -0.000113336    0.000135782
  11  :   -0.000000266    0.000000043   -0.000000407
  12  :   -0.000248531    0.000510314   -0.000352410
  13  :   -0.000198599    0.000182250   -0.000219345
  14  :    0.000116822    0.000281231    0.000022492
  15  :    0.000490496    0.000295224    0.000337931
  16  :    0.000311032    0.000436684    0.000145227
  17  :    0.000403050    0.000088871    0.000320386

  |G| =    0.001919309

done

------------------
CARTESIAN GRADIENT
------------------

   1   C   :   -0.000004812   -0.000034480    0.000027674
   2   C   :   -0.000022595    0.000050977   -0.000025489
   3   C   :   -0.000041377   -0.000040875   -0.000008316
   4   C   :    0.000016855   -0.000026046    0.000007205
   5   C   :    0.000011976   -0.000032674    0.000032861
   6   C   :   -0.000001257    0.000031856   -0.000009550
   7   H   :   -0.000040535    0.000035798   -0.000038310
   8   H   :   -0.000021897   -0.000020430   -0.000013505
   9   H   :    0.000006246   -0.000061854    0.000017818
  10   H   :    0.000045990   -0.000025577    0.000054742
  11   H   :   -0.000029755    0.000003220   -0.000042862
  12   N   :   -0.000012913    0.000075429   -0.000014393
  13   H   :   -0.000050727    0.000033163   -0.000034917
  14   H   :    0.000013502    0.000042209    0.000022205
[...]
Angular grid pruning method      GridPruning ... 4 (adaptive)
Weight generation scheme         WeightScheme... Becke
Basis function cutoff            BFCut       ... 1.0000e-11
Integration weight cutoff        WCut        ... 1.0000e-14
Angular grids for H and He will be reduced by one unit
Partially contracted basis set               ... on
Rotationally invariant grid construction     ... off

Total number of grid points                  ...    23473
Total number of batches                      ...      375
Average number of points per batch           ...       62
Average number of grid points per atom       ...     1381
UseSFitting                                  ... on

GRIDX 3
-------
General Integration Accuracy     IntAcc      ... 4.338
Radial Grid Type                 RadialGrid  ... OptM3 with GC (2021)
Angular Grid (max. ang.)         AngularGrid ... 3 (Lebedev-194)
Angular grid pruning method      GridPruning ... 4 (adaptive)
Weight generation scheme         WeightScheme... Becke
Basis function cutoff            BFCut       ... 1.0000e-11
Integration weight cutoff        WCut        ... 1.0000e-14
Angular grids for H and He will be reduced by one unit
Partially contracted basis set               ... on
Rotationally invariant grid construction     ... off

Total number of grid points                  ...    51633
Total number of batches                      ...      816
Average number of points per batch           ...       63
Average number of grid points per atom       ...     3037
UseSFitting                                  ... on

Time for X-Grid setup             =    1.661 sec

--------------
SCF ITERATIONS
--------------
ITER       Energy         Delta-E        Max-DP      RMS-DP      [F,P]     Damp
               ***  Starting incremental Fock matrix formation  ***
                      *** Initiating the SOSCF procedure ***
                      *** Re-Reading the Fockian *** 
                      *** Removing any level shift *** 
ITER      Energy       Delta-E        Grad      Rot      Max-DP    RMS-DP
  0   -491.63886716 -491.6388671628  0.000066  0.000066  0.000167  0.000006
               *** Restarting incremental Fock matrix formation ***
  1   -491.63886770  -0.0000005356  0.000030  0.000600  0.000404  0.000006
  2   -491.63886734   0.0000003632  0.000357  0.000601  0.000388  0.000005
  3   -491.63886772  -0.0000003873  0.000024  0.000063  0.000087  0.000003
  4   -491.63886773  -0.0000000087  0.000034  0.000077  0.000067  0.000001
  5   -491.63886774  -0.0000000058  0.000037  0.000051  0.000046  0.000002
  6   -491.63886774  -0.0000000017  0.000013  0.000032  0.000024  0.000001
  7   -491.63886774  -0.0000000049  0.000006  0.000019  0.000012  0.000001
  8   -491.63886775  -0.0000000023  0.000003  0.000010  0.000009  0.000000
                  ***Gradient check signals convergence***
              ***Rediagonalizing the Fockian in SOSCF/NRSCF***

               *****************************************************
               *                     SUCCESS                       *
               *           SCF CONVERGED AFTER   9 CYCLES          *
               *****************************************************

Old exchange energy                            =    -12.499342252 Eh
New exchange energy                            =    -12.499294919 Eh
Exchange energy change after final integration =      0.000047334 Eh
Total energy after final integration           =   -491.638820413 Eh
Final COS-X integration done in                =    13.567 sec
Total Energy       :         -491.63882041 Eh          -13378.17244 eV
  Last Energy change         ...   -7.2180e-10  Tolerance :   1.0000e-08
  Last MAX-Density change    ...    5.7732e-15  Tolerance :   1.0000e-07
             **** THE GBW FILE WAS UPDATED (opt4.gbw) ****
             **** DENSITY opt4.scfp WAS UPDATED ****
             **** ENERGY FILE WAS UPDATED (opt4.en.tmp) ****
             **** THE GBW FILE WAS UPDATED (opt4.gbw) ****
             **** DENSITY opt4.scfp WAS UPDATED ****
Total SCF time: 0 days 0 hours 1 min 29 sec 

Maximum memory used throughout the entire SCF-calculation: 74.0 MB


-------------------------------------------------------------------------------
                          DFT DISPERSION CORRECTION                            
                                                                               
                                 DFTD4 V2.5                                    
-------------------------------------------------------------------------------
Starting D4
-------------------------   ----------------
Dispersion correction           -0.026277063
-------------------------   ----------------


-------------------------   --------------------
FINAL SINGLE POINT ENERGY      -491.665097475247
-------------------------   --------------------

------------------------------------------------------------------------------
                         ORCA SCF GRADIENT CALCULATION
------------------------------------------------------------------------------

 ... reading COSX grid (gridx3)
Gradient of the Kohn-Sham DFT energy:
Kohn-Sham wavefunction type      ... RKS
Hartree-Fock exchange scaling    ...    0.200
Number of operators              ...    1
Number of atoms                  ...   17
Basis set dimensions             ...  175
Integral neglect threshold       ... 2.5e-11
Integral primitive cutoff        ... 2.5e-12
SHARK Integral package           ... ON

Nuc. rep. gradient       (SHARK) ... done (  0.0 sec)
HCore & Overlap gradient (SHARK) ... done (  0.4 sec)
RI-J gradient            (SHARK) ... done (  3.2 sec)
COSX-gradient                    ... done ( 17.5 sec)
Exchange-correlation gradient    ... done
Dispersion correction            ... Starting D4


------------------- 
Dispersion Gradient 
------------------- 
   1  :   -0.000246941    0.000224420   -0.000276225
   2  :   -0.000436669   -0.000109620   -0.000343126
   3  :   -0.000336795   -0.000491191   -0.000148138
   4  :   -0.000106001   -0.000621506    0.000087248
   5  :    0.000173559   -0.000519782    0.000297882
   6  :    0.000231673    0.000105025    0.000168592
   7  :   -0.000153840    0.000009029   -0.000134515
   8  :   -0.000107659   -0.000121468   -0.000057524
   9  :   -0.000002706   -0.000170148    0.000046531
  10  :    0.000123458   -0.000110021    0.000137525
  11  :   -0.000000167    0.000000032   -0.000000257
  12  :   -0.000252606    0.000502415   -0.000360805
  13  :   -0.000200277    0.000177136   -0.000222372
  14  :    0.000115003    0.000282510    0.000017495
  15  :    0.000488899    0.000304574    0.000332164
  16  :    0.000308255    0.000441400    0.000137087
  17  :    0.000402815    0.000097196    0.000318439

  |G| =    0.001917171

done

------------------
CARTESIAN GRADIENT
------------------

   1   C   :   -0.000005650    0.000006165    0.000004423
   2   C   :   -0.000002023    0.000000411    0.000002691
   3   C   :   -0.000000232    0.000005702   -0.000001698
   4   C   :    0.000002757    0.000003635   -0.000001986
   5   C   :   -0.000005464   -0.000002801   -0.000004818
   6   C   :   -0.000003043    0.000007907    0.000006015
   7   H   :   -0.000003640    0.000003120    0.000001396
   8   H   :    0.000001751    0.000002142   -0.000002925
   9   H   :    0.000002639    0.000003403   -0.000003951
  10   H   :    0.000005969    0.000001895    0.000016803
  11   H   :   -0.000019430    0.000003080   -0.000028778
  12   N   :   -0.000002378    0.000004148    0.000010843
  13   H   :   -0.000008868    0.000006736    0.000005919
  14   H   :   -0.000010843    0.000007423    0.000007159
  15   N   :   -0.000010173    0.000012598    0.000010135
  16   O   :   -0.000013318    0.000001274    0.000001737
  17   O   :    0.000003914    0.000007889    0.000016132

Difference to translation invariance:
           :   -0.0000680322    0.0000747278    0.0000390963

Difference to rotation invariance:
           :    0.0004499693    0.0001678020   -0.0000515499

Norm of the cartesian gradient     ...    0.0000578812
RMS gradient                       ...    0.0000081050
MAX gradient                       ...    0.0000287780

-------
TIMINGS
-------

Total SCF gradient time            ...       29.392 sec

One electron gradient       ....       0.389 sec  (  1.3%)
RI-J Coulomb gradient       ....       3.152 sec  ( 10.7%)
COSX gradient               ....      17.510 sec  ( 59.6%)
XC gradient                 ....       7.554 sec  ( 25.7%)

Maximum memory used throughout the entire SCFGRAD-calculation: 59.7 MB
------------------------------------------------------------------------------
                         ORCA GEOMETRY RELAXATION STEP
------------------------------------------------------------------------------

Reading the OPT-File                    .... done
Getting information on internals        .... done
Copying old internal coords+grads       .... done
Making the new internal coordinates     .... (new redundants).... done
Validating the new internal coordinates .... (new redundants).... done
Calculating the B-matrix                .... done
Calculating the G,G- and P matrices     .... done
Transforming gradient to internals      .... done
Projecting the internal gradient        .... done
Number of atoms                         ....  17
Number of internal coordinates          ....  83
Current Energy                          ....  -491.665097475 Eh
Current gradient norm                   ....     0.000057881 Eh/bohr
Maximum allowed component of the step   ....  0.300
Current trust radius                    ....  0.300
Updating the Hessian (BFGS)             .... done
Forming the augmented Hessian           .... done
Diagonalizing the augmented Hessian     .... done
Last element of RFO vector              ....  0.712973848
Lowest eigenvalues of augmented Hessian:
 -0.000023656  0.000024442  0.000303275  0.014751630  0.019204686
Length of the computed step             ....  0.983473135
Warning: the length of the step is outside the trust region - taking restricted step instead
The input lambda is                     ....    -0.000024
   iter:   1  x=   -0.000035  g=79382.055699 f(x)=     0.877219
   iter:   2  x=   -0.000049  g=25887.560023 f(x)=     0.368794
   iter:   3  x=   -0.000064  g= 9400.974101 f(x)=     0.143653
   iter:   4  x=   -0.000075  g= 4207.602928 f(x)=     0.046747
   iter:   5  x=   -0.000079  g= 2621.044452 f(x)=     0.009752
   iter:   6  x=   -0.000079  g= 2271.437186 f(x)=     0.000674
   iter:   7  x=   -0.000079  g= 2246.297717 f(x)=     0.000004
   iter:   8  x=   -0.000079  g= 2246.149905 f(x)=     0.000000
   iter:   9  x=   -0.000079  g= 2246.149854 f(x)=     0.000000
The output lambda is                    ....    -0.000079 (9 iterations)
The final length of the internal step   ....  0.300000000
Converting the step to cartesian space:
 Initial RMS(Int)=    0.0329292780
Transforming coordinates:
 Iter   0:  RMS(Cart)=    0.0271526421 RMS(Int)=    0.0310464519
 Iter   1:  RMS(Cart)=    0.0016489260 RMS(Int)=    0.0018828639
 Iter   2:  RMS(Cart)=    0.0000000997 RMS(Int)=    0.0000000983
done
Storing new coordinates                 .... done

                                .--------------------.
          ----------------------|Geometry convergence|-------------------------
          Item                value                   Tolerance       Converged
          ---------------------------------------------------------------------
          Energy change      -0.0000074190            0.0000050000      NO
          RMS gradient        0.0000047303            0.0001000000      YES
          MAX gradient        0.0000202966            0.0003000000      YES
          RMS step            0.0329292780            0.0020000000      NO
          MAX step            0.2121656789            0.0040000000      NO
          ........................................................
          Max(Bonds)      0.1123      Max(Angles)    0.03
          Max(Dihed)        0.03      Max(Improp)    0.00
          ---------------------------------------------------------------------

The optimization has not yet converged - more geometry cycles are needed


    ---------------------------------------------------------------------------
                         Redundant Internal Coordinates
                            (Angstroem and degrees)

        Definition                    Value    dE/dq     Step     New-Value
    ----------------------------------------------------------------------------
     1. B(C   1,C   0)                1.4378 -0.000000 -0.0000    1.4378   
     2. B(C   2,C   1)                1.3785 -0.000000 -0.0000    1.3785   
     3. B(C   3,C   2)                1.4099  0.000003 -0.0000    1.4099   
     4. B(C   4,C   3)                1.4063 -0.000001 -0.0000    1.4063   
     5. B(C   5,C   4)                1.3829  0.000005  0.0000    1.3829   
     6. B(C   5,C   0)                1.4433 -0.000010  0.0000    1.4434   
     7. B(H   6,C   1)                1.0926  0.000000 -0.0000    1.0926   
     8. B(H   7,C   2)                1.0920  0.000000 -0.0000    1.0920   
     9. B(H   8,C   3)                1.0918 -0.000001  0.0000    1.0918   
    10. B(H   9,C   4)                1.0905  0.000004  0.0000    1.0905   
    11. B(H  10,H   9)               24.4252 -0.000014  0.1122   24.5375   
    12. B(N  11,C   0)                1.3313 -0.000000 -0.0000    1.3313   
    13. B(H  12,N  11)                1.0159  0.000001 -0.0000    1.0159   
    14. B(H  13,N  11)                1.0259  0.000000 -0.0000    1.0259   
    15. B(N  14,C   5)                1.4748 -0.000004  0.0000    1.4748   
    16. B(O  15,N  14)                1.2305 -0.000004  0.0000    1.2305   
    17. B(O  16,H  10)               24.0458 -0.000020  0.1123   24.1581   
    18. B(O  16,N  14)                1.2099 -0.000005 -0.0000    1.2099   
    19. A(C   1,C   0,C   5)          117.26  0.000000    0.00    117.26   
    20. A(C   5,C   0,N  11)          122.87 -0.000010    0.00    122.87   
    21. A(C   1,C   0,N  11)          119.88  0.000010   -0.00    119.87   
    22. A(C   0,C   1,C   2)          121.15 -0.000001    0.00    121.15   
    23. A(C   2,C   1,H   6)          120.71  0.000000   -0.00    120.71   
    24. A(C   0,C   1,H   6)          118.14  0.000000   -0.00    118.14   
    25. A(C   3,C   2,H   7)          119.97 -0.000000   -0.00    119.97   
    26. A(C   1,C   2,C   3)          120.28  0.000001   -0.00    120.28   
    27. A(C   1,C   2,H   7)          119.75 -0.000001    0.00    119.75   
    28. A(C   2,C   3,C   4)          120.13 -0.000002    0.00    120.13   
    29. A(C   2,C   3,H   8)          120.31  0.000000   -0.00    120.31   
    30. A(C   4,C   3,H   8)          119.56  0.000002   -0.00    119.56   
    31. A(C   5,C   4,H   9)          118.26 -0.000010    0.01    118.27   
    32. A(C   3,C   4,C   5)          120.39 -0.000002   -0.00    120.39   
    33. A(C   3,C   4,H   9)          121.35  0.000012   -0.01    121.34   
    34. A(C   0,C   5,C   4)          120.79  0.000003   -0.00    120.78   
    35. A(C   4,C   5,N  14)          117.62  0.000013    0.00    117.62   
    36. A(C   0,C   5,N  14)          121.60 -0.000016    0.00    121.60   
    37. A(C   4,H   9,H  10)          162.75 -0.000001   -0.01    162.74   
    38. A(H   9,H  10,O  16)            5.41  0.000000   -0.02      5.39   
    39. A(H  12,N  11,H  13)          121.64 -0.000002    0.00    121.64   
    40. A(C   0,N  11,H  13)          117.63  0.000000   -0.00    117.63   
    41. A(C   0,N  11,H  12)          120.73  0.000001   -0.00    120.73   
    42. A(O  15,N  14,O  16)          124.74  0.000009   -0.00    124.73   
    43. A(C   5,N  14,O  16)          117.64 -0.000002    0.00    117.64   
    44. A(C   5,N  14,O  15)          117.62 -0.000007    0.00    117.62   
    45. A(H  10,O  16,N  14)          162.33 -0.000001   -0.03    162.29   
    46. D(C   2,C   1,C   0,C   5)     -0.02  0.000000   -0.00     -0.02   
    47. D(C   2,C   1,C   0,N  11)    179.99  0.000000   -0.00    179.99   
    48. D(H   6,C   1,C   0,C   5)    179.99  0.000000   -0.00    179.99   
    49. D(H   6,C   1,C   0,N  11)      0.00  0.000000   -0.00      0.00   
    50. D(C   3,C   2,C   1,H   6)   -179.98 -0.000000   -0.00   -179.98   
    51. D(H   7,C   2,C   1,C   0)   -179.99 -0.000000    0.00   -179.99   
    52. D(C   3,C   2,C   1,C   0)      0.03 -0.000000    0.00      0.03   
    53. D(H   7,C   2,C   1,H   6)      0.00  0.000000   -0.00      0.00   
    54. D(H   8,C   3,C   2,H   7)     -0.01  0.000000   -0.00     -0.01   
    55. D(H   8,C   3,C   2,C   1)    179.97  0.000000   -0.00    179.97   
    56. D(C   4,C   3,C   2,H   7)    179.99  0.000000    0.00    179.99   
    57. D(C   4,C   3,C   2,C   1)     -0.03  0.000000   -0.00     -0.03   
    58. D(H   9,C   4,C   3,C   2)    180.00  0.000000   -0.00    180.00   
    59. D(C   5,C   4,C   3,H   8)   -179.99 -0.000000    0.00   -179.99   
    60. D(C   5,C   4,C   3,C   2)      0.02 -0.000000   -0.00      0.02   
    61. D(H   9,C   4,C   3,H   8)     -0.01  0.000000   -0.00     -0.01   
    62. D(N  14,C   5,C   4,H   9)      0.00  0.000000    0.01      0.01   
    63. D(C   0,C   5,C   4,H   9)   -179.99 -0.000000    0.00   -179.99   
    64. D(C   0,C   5,C   4,C   3)     -0.01  0.000000    0.00     -0.01   
    65. D(N  14,C   5,C   0,N  11)      0.01 -0.000000   -0.01     -0.00   
    66. D(N  14,C   5,C   0,C   1)   -179.98 -0.000000   -0.01   -179.99   
    67. D(N  14,C   5,C   4,C   3)    179.98  0.000000    0.01    179.99   
    68. D(C   4,C   5,C   0,N  11)    180.00 -0.000000    0.00    180.00   
    69. D(C   4,C   5,C   0,C   1)      0.01 -0.000000    0.00      0.01   
    70. D(H  10,H   9,C   4,C   5)     71.68 -0.000003    0.02     71.70   
    71. D(H  10,H   9,C   4,C   3)   -108.30 -0.000003    0.02   -108.28   
    72. D(O  16,H  10,H   9,C   4)    -74.43  0.000002   -0.03    -74.46   
    73. D(H  13,N  11,C   0,C   5)      0.05 -0.000000   -0.00      0.05   
    74. D(H  13,N  11,C   0,C   1)   -179.96 -0.000000    0.00   -179.96   
    75. D(H  12,N  11,C   0,C   5)   -179.97  0.000000   -0.00   -179.97   
    76. D(H  12,N  11,C   0,C   1)      0.02  0.000000   -0.00      0.01   
    77. D(O  16,N  14,C   5,C   4)     -0.12 -0.000000    0.01     -0.11   
    78. D(O  16,N  14,C   5,C   0)    179.87 -0.000000    0.02    179.88   
    79. D(O  15,N  14,C   5,C   4)    179.87 -0.000002    0.01    179.88   
    80. D(O  15,N  14,C   5,C   0)     -0.14 -0.000002    0.02     -0.13   
    81. D(H  10,O  16,N  14,O  15)     69.41  0.000003   -0.01     69.41   
    82. D(H  10,O  16,N  14,C   5)   -110.59  0.000002   -0.01   -110.60   
    83. D(N  14,O  16,H  10,H   9)    109.65 -0.000002   -0.01    109.64   
    ----------------------------------------------------------------------------




    ----------------------------------------------------------------------------
                                   ERROR !!!
       The optimization did not converge but reached the maximum 
       number of optimization cycles.
       As a subsequent Frequencies calculation has been requested
       ORCA will abort at this point of the run.
       Please restart the calculation with the lowest energy geometry and/or
       a larger maxiter for the geometry optimization.
    ----------------------------------------------------------------------------


[file orca_main/run.cpp, line 12331]: ORCA finished with error return - aborting the run
