20
# ORCA AIMD Position Step 0, t=0.00 fs, E_Pot=-957.37880144 Hartree, Unit is Angstrom
 C     -2.5631000115      1.3840000062     -0.2444500011
 C     -3.9380200176      1.9148500086      0.2119100009
 O     -4.9828300223      1.1280100051     -0.4112000018
 H     -4.0587100182      2.9591700133     -0.0877900004
 H     -4.0269600180      1.8376300082      1.2993200058
 C     -2.3672100106     -0.0832200004      0.1839700008
 O     -1.0872300049     -0.5499200025     -0.3111900014
 H     -3.1582200141     -0.7088400032     -0.2396900011
 H     -2.3817600107     -0.1607200007      1.2746000057
 O     -1.5221600068      2.1776100098      0.3857000017
 H     -2.4700700111      1.4519700065     -1.3322100060
 N     -6.3471300284      1.4596800065     -0.1247400006
 N     -1.2400300056      3.4963900157     -0.1014900005
 N     -0.6821100031     -1.8876000085      0.0023200000
 O     -6.5726600294      2.3732500106      0.6529200029
 O     -0.3571200016      4.0875600183      0.4947000022
 O     -1.4341800064     -2.5825500116      0.6670800030
 O     -7.1762900321      0.7494000034     -0.6656600030
 O     -1.8347000082      3.8947800174     -1.0902400049
 O      0.4013500018     -2.2193800099     -0.4458700020
20
# ORCA AIMD Position Step 1, t=1.00 fs, E_Pot=-957.35492183 Hartree, Unit is Angstrom
 C     -2.5499398735      1.3837964265     -0.2372990123
 C     -3.9453079300      1.9514098855      0.2478762090
 O     -4.9694502285      1.1279955812     -0.4113389816
 H     -3.9786716973      2.8851526748     -0.0334491486
 H     -4.0897065073      1.8883298579      1.2673191803
 C     -2.3861495050     -0.0676982812      0.1753828206
 O     -1.0836330893     -0.5596231972     -0.3186232779
 H     -3.1095542389     -0.7453883525     -0.2473549106
 H     -2.4561618089     -0.1342061076      1.2754126636
 O     -1.5199221370      2.1496556482      0.3775714445
 H     -2.4405544115      1.4324339748     -1.3885242990
 N     -6.3462865989      1.4485748878     -0.1215032869
 N     -1.2221759183      3.4880162187     -0.0998073652
 N     -0.7055394856     -1.8891326273     -0.0071008950
 O     -6.5749493154      2.3707651622      0.6645598059
 O     -0.3513175690      4.0785270864      0.4916862116
 O     -1.4337176061     -2.5865881742      0.6675203489
 O     -7.1839032090      0.7608804903     -0.6884798167
 O     -1.8418074961      3.9218356492     -1.0734361777
 O      0.4055058065     -2.2219072322     -0.4526291324
20
# ORCA AIMD Position Step 2, t=2.00 fs, E_Pot=-957.31802750 Hartree, Unit is Angstrom
 C     -2.5375036269      1.3837247087     -0.2317124677
 C     -3.9521489909      1.9834005320      0.2826889815
 O     -4.9556819955      1.1278321026     -0.4117841675
 H     -3.9036794743      2.8667640736      0.0023972934
 H     -4.1531861257      1.9360650729      1.2640012495
 C     -2.4040284272     -0.0526707094      0.1673619861
 O     -1.0800003929     -0.5685214463     -0.3262154835
 H     -3.0716057800     -0.7830360643     -0.2588695094
 H     -2.5283512030     -0.1095183473      1.2781694198
 O     -1.5172195709      2.1213781412      0.3702112662
 H     -2.4143501729      1.4152071523     -1.4328461540
 N     -6.3468623429      1.4379607957     -0.1178076967
 N     -1.2043704592      3.4809726932     -0.0993239629
 N     -0.7275506908     -1.8918735119     -0.0166380149
 O     -6.5766856203      2.3681145066      0.6760704963
 O     -0.3454262783      4.0688836300      0.4891759496
 O     -1.4339385502     -2.5904539904      0.6681891209
 O     -7.1907194963      0.7723579655     -0.7113743195
 O     -1.8491922739      3.9483335427     -1.0564276240
 O      0.4088583195     -2.2237161286     -0.4593366506
20
# ORCA AIMD Position Step 3, t=3.00 fs, E_Pot=-957.31318840 Hartree, Unit is Angstrom
 C     -2.5263053325      1.3839208548     -0.2284180538
 C     -3.9583768616      2.0077750367      0.3157121240
 O     -4.9415890233      1.1278934933     -0.4123609584
 H     -3.8317342234      2.9369642049      0.0067046651
 H     -4.2195838443      1.9791299448      1.3035865907
 C     -2.4207558676     -0.0387184245      0.1602780292
 O     -1.0765093320     -0.5765224179     -0.3337845081
 H     -3.0464491928     -0.8197960840     -0.2750588829
 H     -2.5955760289     -0.0875103553      1.2792067852
 O     -1.5136308309      2.0929680804      0.3637142402
 H     -2.3941058422      1.4014644630     -1.4564120534
 N     -6.3489715287      1.4280917130     -0.1137072013
 N     -1.1872434912      3.4753878737     -0.1004868911
 N     -0.7472831044     -1.8958056601     -0.0265664915
 O     -6.5778291202      2.3649360279      0.6872908612
 O     -0.3390638745      4.0586234853      0.4873912389
 O     -1.4350592266     -2.5942577812      0.6691645021
 O     -7.1965802413      0.7839502599     -0.7342414449
 O     -1.8567009680      3.9740872669     -1.0389241854
 O      0.4109362541     -2.2247591108     -0.4658933736
20
# ORCA AIMD Position Step 4, t=4.00 fs, E_Pot=-957.30560975 Hartree, Unit is Angstrom
 C     -2.5168336862      1.3844531337     -0.2277796494
 C     -3.9639626413      2.0273772966      0.3462307460
 O     -4.9272620726      1.1284686697     -0.4128898691
 H     -3.7643162300      3.0569954226     -0.0087881980
 H     -4.2871595977      2.0181187065      1.3765634966
 C     -2.4365105898     -0.0266851436      0.1543294983
 O     -1.0733109281     -0.5835376202     -0.3411735868
 H     -3.0331664641     -0.8508965813     -0.2947519282
 H     -2.6551782450     -0.0690368809      1.2754395161
 O     -1.5087504758      2.0647108546      0.3581917513
 H     -2.3815818571      1.3924030169     -1.4558592718
 N     -6.3526931176      1.4192147569     -0.1092997758
 N     -1.1714217525      3.4713621269     -0.1036344698
 N     -0.7640326598     -1.9008795734     -0.0370357910
 O     -6.5783683963      2.3609272022      0.6980618900
 O     -0.3318688005      4.0477951960      0.4865417956
 O     -1.4372452618     -2.5980757185      0.6704957300
 O     -7.2013323327      0.7957304369     -0.7569119518
 O     -1.8641707814      3.9988705891     -1.0207625898
 O      0.4114027524     -2.2250338339     -0.4722373347
20
# ORCA AIMD Position Step 5, t=5.00 fs, E_Pot=-957.28043629 Hartree, Unit is Angstrom
 C     -2.5095348053      1.3853930214     -0.2299053020
 C     -3.9688007411      2.0457961308      0.3743206898
 O     -4.9127767904      1.1297828560     -0.4131704932
 H     -3.7088860550      3.1792902871     -0.0271497876
 H     -4.3496722543      2.0541724068      1.4598370797
 C     -2.4515926486     -0.0174372173      0.1495321871
 O     -1.0705371237     -0.5895160107     -0.3482658352
 H     -3.0296685645     -0.8707401861     -0.3159146373
 H     -2.7050374429     -0.0549096352      1.2651705515
 O     -1.5021975302      2.0368918090      0.3537377540
 H     -2.3777972558      1.3890603480     -1.4316303119
 N     -6.3580644325      1.4115318056     -0.1047114817
 N     -1.1574088288      3.4689536955     -0.1089517807
 N     -0.7773207109     -1.9070358244     -0.0480931023
 O     -6.5783247363      2.3558389063      0.7082611199
 O     -0.3235252781      4.0364528612      0.4867876184
 O     -1.4405895785     -2.6019440479      0.6721826269
 O     -7.2048529490      0.8077625079     -0.7792215967
 O     -1.8714642811      4.0225071938     -1.0018572862
 O      0.4100338460     -2.2245774469     -0.4783459267
20
# ORCA AIMD Position Step 6, t=6.00 fs, E_Pot=-957.25278460 Hartree, Unit is Angstrom
 C     -2.5047541721      1.3868176824     -0.2346108003
 C     -3.9730172591      2.0646919236      0.4005455986
 O     -4.8981638221      1.1320292461     -0.4129890420
 H     -3.6704391745      3.2808684598     -0.0392860319
 H     -4.4009393874      2.0877279285      1.5340877766
 C     -2.4663122102     -0.0116229012      0.1457576201
 O     -1.0683040620     -0.5944522598     -0.3549981479
 H     -3.0340855001     -0.8749989181     -0.3368102822
 H     -2.7438321494     -0.0458612330      1.2483922858
 O     -1.4936310484      2.0097089722      0.3503968059
 H     -2.3831896360      1.3923281492     -1.3877145180
 N     -6.3650894723      1.4051809534     -0.1000771515
 N     -1.1455075566      3.4681852882     -0.1164638736
 N     -0.7869160976     -1.9142485209     -0.0597039049
 O     -6.5777475492      2.3494621680      0.7178266048
 O     -0.3137813308      4.0246037403      0.4882132353
 O     -1.4451137233     -2.6058569796      0.6741656716
 O     -7.2070615863      0.8201312362     -0.8010722417
 O     -1.8784929104      4.0449311703     -0.9821379794
 O      0.4066901460     -2.2234530276     -0.4842406825
20
# ORCA AIMD Position Step 7, t=7.00 fs, E_Pot=-957.23246489 Hartree, Unit is Angstrom
 C     -2.5027268027      1.3887609254     -0.2412428144
 C     -3.9768348815      2.0845259572      0.4253324083
 O     -4.8834421284      1.1353731141     -0.4121386122
 H     -3.6506939591      3.3543467445     -0.0417255381
 H     -4.4370573671      2.1186446093      1.5883903290
 C     -2.4808753778     -0.0095782917      0.1427506673
 O     -1.0667281459     -0.5983736233     -0.3613395920
 H     -3.0453327855     -0.8615984007     -0.3565478431
 H     -2.7710449909     -0.0425613068      1.2269247362
 O     -1.4827831137      1.9832891897      0.3481515895
 H     -2.3976068332      1.4030363598     -1.3329598830
 N     -6.3737322794      1.4002546991     -0.0955425462
 N     -1.1358192198      3.4690860994     -0.1260325244
 N     -0.7927861540     -1.9225147394     -0.0717464712
 O     -6.5767092620      2.3416302128      0.7267406973
 O     -0.3024825784      4.0122017040      0.4908140657
 O     -1.4507702733     -2.6097660612      0.6763228110
 O     -7.2079129720      0.8329253327     -0.8224042591
 O     -1.8852079044      4.0661405728     -0.9615551536
 O      0.4012944316     -2.2217429785     -0.4899701385
20
# ORCA AIMD Position Step 8, t=8.00 fs, E_Pot=-957.22090300 Hartree, Unit is Angstrom
 C     -2.5035776666      1.3911959368     -0.2483998101
 C     -3.9804320258      2.1053041826      0.4488225713
 O     -4.8686467907      1.1399546514     -0.4104307853
 H     -3.6498626954      3.3980586316     -0.0332842776
 H     -4.4560535674      2.1465253507      1.6177690500
 C     -2.4953214201     -0.0113086677      0.1401333298
 O     -1.0659397963     -0.6013217833     -0.3672733207
 H     -3.0631740222     -0.8309998526     -0.3752420687
 H     -2.7869280673     -0.0455967773      1.2043741101
 O     -1.4695113037      1.9577258634      0.3469027417
 H     -2.4201824252      1.4220361544     -1.2833932246
 N     -6.3839029270      1.3968159015     -0.0912708105
 N     -1.1282666286      3.4717097336     -0.1373509266
 N     -0.7950599901     -1.9318340699     -0.0839982243
 O     -6.5753028944      2.3322256586      0.7350066252
 O     -0.2896024408      3.9991629473      0.4944858693
 O     -1.4574438208     -2.6135819635      0.6784717146
 O     -7.2073874224      0.8462174413     -0.8431509846
 O     -1.8915816454      4.0861445499     -0.9401037808
 O      0.3938329738     -2.2195494163     -0.4955951149
20
# ORCA AIMD Position Step 9, t=9.00 fs, E_Pot=-957.22154031 Hartree, Unit is Angstrom
 C     -2.5073043944      1.3940273631     -0.2539933090
 C     -3.9838661841      2.1269907413      0.4708820373
 O     -4.8538385307      1.1458922176     -0.4076983360
 H     -3.6680681631      3.4103734438     -0.0130052852
 H     -4.4570244683      2.1708408891      1.6203742798
 C     -2.5094762806     -0.0164689977      0.1374260018
 O     -1.0660906906     -0.6033474523     -0.3727851803
 H     -3.0883010945     -0.7863739947     -0.3941244970
 H     -2.7924629182     -0.0554312521      1.1857380757
 O     -1.4538496966      1.9330931694      0.3464463024
 H     -2.4496162643      1.4503483155     -1.2604769948
 N     -6.3954323511      1.3948944912     -0.0874480900
 N     -1.1226116330      3.4761315858     -0.1499428909
 N     -0.7940261050     -1.9421676445     -0.0961394494
 O     -6.5736446832      2.3212029748      0.7426465110
 O     -0.2752519579      3.9853928653      0.4990245568
 O     -1.4649557557     -2.6171905946      0.6803847677
 O     -7.2054993027      0.8600427499     -0.8632195402
 O     -1.8975990361      4.1049359579     -0.9178470894
 O      0.3843812922     -2.2170021784     -0.5011829566
20
# ORCA AIMD Position Step 10, t=10.00 fs, E_Pot=-957.23763967 Hartree, Unit is Angstrom
 C     -2.5136276569      1.3971078098     -0.2563607292
 C     -3.9870961405      2.1494520537      0.4911395911
 O     -4.8391361949      1.1532514275     -0.4038234469
 H     -3.7050021823      3.3905884639      0.0194500696
 H     -4.4404005603      2.1909857079      1.5977417098
 C     -2.5229574083     -0.0244187696      0.1341588282
 O     -1.0673513633     -0.6045050864     -0.3778600947
 H     -3.1222525852     -0.7333003243     -0.4154234263
 H     -2.7890734809     -0.0723475195      1.1760657772
 O     -1.4360405301      1.9094778628      0.3464754882
 H     -2.4852022069      1.4888259944     -1.2780316845
 N     -6.4080475818      1.3944850101     -0.0842751862
 N     -1.1184818668      3.4824102819     -0.1631702219
 N     -0.7901566955     -1.9533997069     -0.1077566718
 O     -6.5718780931      2.3086122072      0.7496979205
 O     -0.2596792432      3.9708282504      0.5041351826
 O     -1.4730671809     -2.6204686416      0.6818087930
 O     -7.2023090359      0.8743758042     -0.8824782436
 O     -1.9032553346      4.1224787236     -0.8949461994
 O      0.3731498129     -2.2142675927     -0.5068065134
20
# ORCA AIMD Position Step 11, t=11.00 fs, E_Pot=-957.25947377 Hartree, Unit is Angstrom
 C     -2.5219946147      1.4004034784     -0.2555864274
 C     -3.9899488917      2.1724541040      0.5089202168
 O     -4.8247129839      1.1620359345     -0.3987461419
 H     -3.7596053304      3.3392066845      0.0635873652
 H     -4.4086161622      2.2062956820      1.5561825220
 C     -2.5352983559     -0.0343853836      0.1300350175
 O     -1.0698975288     -0.6048504343     -0.3824893474
 H     -3.1667405469     -0.6782728241     -0.4415626298
 H     -2.7781236729     -0.0963713973      1.1781441398
 O     -1.4165199157      1.8869821227      0.3466135603
 H     -2.5268472997      1.5364387698     -1.3274124018
 N     -6.4213695185      1.3955206846     -0.0819652204
 N     -1.1153978444      3.4905357791     -0.1762771211
 N     -0.7841403130     -1.9653173813     -0.1183710241
 O     -6.5701709974      2.2946132093      0.7562284158
 O     -0.2432397340      3.9554657689      0.5094576633
 O     -1.4814962365     -2.6233065891      0.6824948610
 O     -7.1979294257      0.8891351468     -0.9007730111
 O     -1.9085682970      4.1387324034     -0.8716520291
 O      0.3605261818     -2.2115521100     -0.5125549303
20
# ORCA AIMD Position Step 12, t=12.00 fs, E_Pot=-957.26989870 Hartree, Unit is Angstrom
 C     -2.5318282662      1.4041262333     -0.2528991103
 C     -3.9920675327      2.1955247396      0.5231098356
 O     -4.8107344818      1.1722211455     -0.3924405337
 H     -3.8295227647      3.2598796453      0.1172266499
 H     -4.3671136851      2.2159981917      1.5094802774
 C     -2.5462000432     -0.0457398658      0.1249756723
 O     -1.0738957557     -0.6044391322     -0.3866876605
 H     -3.2220027224     -0.6260267294     -0.4734031540
 H     -2.7605545102     -0.1271747462      1.1905797600
 O     -1.3958253178      1.8656672861      0.3464617599
 H     -2.5734898178      1.5894391299     -1.3857048691
 N     -6.4349549407      1.3978693373     -0.0807215908
 N     -1.1128024996      3.5003999334     -0.1884864605
 N     -0.7768771028     -1.9776377288     -0.1274982376
 O     -6.5687011170      2.2794408497      0.7623641738
 O     -0.2263077850      3.9393440370      0.5146205293
 O     -1.4899624365     -2.6256332894      0.6822286493
 O     -7.1925174011      0.9042255838     -0.9180007122
 O     -1.9136084200      4.1537206852     -0.8482301500
 O      0.3470676148     -2.2090916718     -0.5185595099
20
# ORCA AIMD Position Step 13, t=13.00 fs, E_Pot=-957.25557173 Hartree, Unit is Angstrom
 C     -2.5426119467      1.4086031142     -0.2493309284
 C     -3.9930348923      2.2172567321      0.5323690421
 O     -4.7973318080      1.1837704950     -0.3849056504
 H     -3.9098851713      3.1687166592      0.1727748401
 H     -4.3245167674      2.2188818021      1.4807156270
 C     -2.5557133348     -0.0581787031      0.1189854551
 O     -1.0794974728     -0.6033200438     -0.3904986917
 H     -3.2851252356     -0.5779613109     -0.5086893012
 H     -2.7370318106     -0.1639863609      1.2080856658
 O     -1.3744932174      1.8455253491      0.3456426338
 H     -2.6228122764      1.6430892300     -1.4329811449
 N     -6.4483558111      1.4013449632     -0.0807288145
 N     -1.1101053677      3.5117975645     -0.1990872349
 N     -0.7694363834     -1.9900449255     -0.1346864499
 O     -6.5676455495      2.2633590996      0.7683014259
 O     -0.2092012929      3.9225182483      0.5192875303
 O     -1.4982247426     -2.6274263550      0.6808462732
 O     -7.1862505886      0.9195766622     -0.9341514806
 O     -1.9185069573      4.1675657520     -0.8248942849
 O      0.3334689703     -2.2071376232     -0.5250123173
20
# ORCA AIMD Position Step 14, t=14.00 fs, E_Pot=-957.22630540 Hartree, Unit is Angstrom
 C     -2.5539019951      1.4141503766     -0.2453269912
 C     -3.9926504739      2.2342697870      0.5362852090
 O     -4.7845838188      1.1966591445     -0.3761448818
 H     -3.9945237090      3.1067489596      0.2126762732
 H     -4.2882411645      2.2129237809      1.4930343963
 C     -2.5641977882     -0.0716463541      0.1120186071
 O     -1.0868416847     -0.6015309016     -0.3939911661
 H     -3.3502702268     -0.5332492567     -0.5425538450
 H     -2.7083891377     -0.2056345708      1.2237115694
 O     -1.3529857280      1.8264850433      0.3438276542
 H     -2.6721479651      1.6933340993     -1.4577391296
 N     -6.4611601973      1.4057385533     -0.0821431803
 N     -1.1067275282      3.5244494137     -0.2074849524
 N     -0.7629848300     -2.0022251176     -0.1395299872
 O     -6.5671768276      2.2466184158      0.7742978475
 O     -0.1921396565      3.9050398390      0.5231839745
 O     -1.5061003616     -2.6287082289      0.6782330457
 O     -7.1793045948      0.9351612297     -0.9493192208
 O     -1.9234405929      4.1804833384     -0.8017695292
 O      0.3205071806     -2.2059410306     -0.5321681680
20
# ORCA AIMD Position Step 15, t=15.00 fs, E_Pot=-957.22933740 Hartree, Unit is Angstrom
 C     -2.5653308826      1.4210262795     -0.2409380473
 C     -3.9908807417      2.2420533757      0.5365728580
 O     -4.7725290092      1.2108615589     -0.3661562333
 H     -4.0835062135      3.1281242965      0.2157083493
 H     -4.2574996335      2.1966152350      1.5485535753
 C     -2.5720927915     -0.0861236720      0.1039765662
 O     -1.0960548991     -0.5991039301     -0.3972470973
 H     -3.4107384210     -0.4910563003     -0.5696593460
 H     -2.6759456017     -0.2506843906      1.2311749504
 O     -1.3316900578      1.8084627927      0.3407468856
 H     -2.7189884713      1.7371333162     -1.4548687546
 N     -6.4729914170      1.4108450336     -0.0850858875
 N     -1.1021458992      3.5380184794     -0.2132064604
 N     -0.7586822429     -2.0138738977     -0.1416783160
 O     -6.5674640316      2.2294483142      0.7806477843
 O     -0.1752570406      3.8869693138      0.5260964850
 O     -1.5134593819     -2.6295360453      0.6743197543
 O     -7.1718474902      0.9509767135     -0.9636715872
 O     -1.9285894853      4.1927376796     -0.7789108855
 O      0.3089701119     -2.2057369481     -0.5403149674
20
# ORCA AIMD Position Step 16, t=16.00 fs, E_Pot=-957.24601471 Hartree, Unit is Angstrom
 C     -2.5765231423      1.4293287034     -0.2360567016
 C     -3.9878705852      2.2413469106      0.5346505673
 O     -4.7612502425      1.2262254378     -0.3549973537
 H     -4.1805797760      3.2221441552      0.1878386618
 H     -4.2257508024      2.1713239398      1.6259295906
 C     -2.5796770095     -0.1014170432      0.0948007803
 O     -1.1071899231     -0.5960942404     -0.4003376317
 H     -3.4606340997     -0.4518903390     -0.5858782465
 H     -2.6417170495     -0.2973604053      1.2261794730
 O     -1.3110537157      1.7914979017      0.3362097687
 H     -2.7608103609      1.7720375479     -1.4231930042
 N     -6.4834358348      1.4164657852     -0.0896029062
 N     -1.0959685940      3.5520582680     -0.2158802186
 N     -0.7575302391     -2.0246435965     -0.1408769966
 O     -6.5686687060      2.2121454428      0.7876166424
 O     -0.1587150332      3.8684931061      0.5278552969
 O     -1.5201798883     -2.6299919352      0.6691091256
 O     -7.1640851355      0.9669335197     -0.9773484453
 O     -1.9340646329      4.2045271900     -0.7564448988
 O      0.2995873168     -2.2067182343     -0.5496695329
20
# ORCA AIMD Position Step 17, t=17.00 fs, E_Pot=-957.24071532 Hartree, Unit is Angstrom
 C     -2.5871064565      1.4389721549     -0.2304737314
 C     -3.9846177924      2.2366634321      0.5307964040
 O     -4.7508198981      1.2425303196     -0.3427675513
 H     -4.2781624705      3.3322533434      0.1527447088
 H     -4.1882345974      2.1405384680      1.7003521074
 C     -2.5870279727     -0.1171790494      0.0844802509
 O     -1.1202315464     -0.5925867744     -0.4033362946
 H     -3.4961336746     -0.4174307122     -0.5892412821
 H     -2.6081562197     -0.3438896861      1.2071127547
 O     -1.2915098804      1.7756842366      0.3301064759
 H     -2.7953543911      1.7964474901     -1.3648184598
 N     -6.4921104774      1.4224581183     -0.0956292689
 N     -1.0879881238      3.5661020110     -0.2153084844
 N     -0.7601076278     -2.0342158568     -0.1370873195
 O     -6.5709284688      2.1949924167      0.7954207277
 O     -0.1426459471      3.8498661389      0.5283584081
 O     -1.5261856785     -2.6301876398      0.6626817974
 O     -7.1562344027      0.9828976808     -0.9905048795
 O     -1.9398878776      4.2159870089     -0.7344800690
 O      0.2927928450     -2.2089919237     -0.5603204072
20
# ORCA AIMD Position Step 18, t=18.00 fs, E_Pot=-957.22585310 Hartree, Unit is Angstrom
 C     -2.5967313299      1.4497163430     -0.2237632740
 C     -3.9820659919      2.2306015983      0.5254445943
 O     -4.7412357112      1.2596214742     -0.3295471694
 H     -4.3666493983      3.4252068952      0.1245542528
 H     -4.1438266417      2.1078308010      1.7554402688
 C     -2.5940691756     -0.1330182622      0.0729994166
 O     -1.1351584080     -0.5886780848     -0.4063371278
 H     -3.5159927223     -0.3899072104     -0.5800763837
 H     -2.5777174374     -0.3889531848      1.1751172887
 O     -1.2733670330      1.7610750041      0.3223744577
 H     -2.8211443385      1.8102795713     -1.2858572325
 N     -6.4987338741      1.4287891771     -0.1029942004
 N     -1.0781863707      3.5797860985     -0.2114901898
 N     -0.7664038217     -2.0423714543     -0.1305529605
 O     -6.5743545132      2.1781426007      0.8042295398
 O     -0.1270634040      3.8313040233      0.5275813264
 O     -1.5314956333     -2.6302688128      0.6551757169
 O     -7.1484714830      0.9987781830     -1.0033671337
 O     -1.9459958039      4.2272169766     -0.7129795684
 O      0.2885523023     -2.2125691204     -0.5722196018
20
# ORCA AIMD Position Step 19, t=19.00 fs, E_Pot=-957.21077709 Hartree, Unit is Angstrom
 C     -2.6049810131      1.4611016400     -0.2150700088
 C     -3.9806571471      2.2239312467      0.5191614434
 O     -4.7324624606      1.2773830628     -0.3154244412
 H     -4.4407103085      3.4906257155      0.1082099356
 H     -4.0937122286      2.0760630581      1.7833025847
 C     -2.6005714343     -0.1485058121      0.0603429112
 O     -1.1519342301     -0.5844744927     -0.4094541978
 H     -3.5215477878     -0.3718269331     -0.5608864047
 H     -2.5526561326     -0.4318022559      1.1339924826
 O     -1.2568493983      1.7477085706      0.3129865429
 H     -2.8381027891      1.8158699730     -1.1987842313
 N     -6.5031050007      1.4355265115     -0.1114237464
 N     -1.0667498100      3.5928478543     -0.2045913798
 N     -0.7758355707     -2.0489541195     -0.1218074380
 O     -6.5790343453      2.1616394925      0.8141398130
 O     -0.1118831158      3.8130016901      0.5255684591
 O     -1.5362239929     -2.6304196241      0.6467965008
 O     -7.1409351133      1.0145118406     -1.0161917291
 O     -1.9522290215      4.2382535389     -0.6918016654
 O      0.2863990059     -2.2173771832     -0.5851626541
20
# ORCA AIMD Position Step 20, t=20.00 fs, E_Pot=-957.19610524 Hartree, Unit is Angstrom
 C     -2.6113083952      1.4723770984     -0.2028967854
 C     -3.9804928234      2.2167499792      0.5124931846
 O     -4.7244677038      1.2956877903     -0.3005261867
 H     -4.4978818514      3.5271711840      0.1048258936
 H     -4.0400270593      2.0474403806      1.7809541207
 C     -2.6061368923     -0.1631702125      0.0465364366
 O     -1.1704933357     -0.5800884620     -0.4128195612
 H     -3.5169362485     -0.3657459081     -0.5363362455
 H     -2.5348485502     -0.4723150303      1.0898274760
 O     -1.2421347770      1.7356273619      0.3019498009
 H     -2.8485079893      1.8190581300     -1.1247017174
 N     -6.5050825974      1.4428093207     -0.1205560674
 N     -1.0540715630      3.6051016187     -0.1949208672
 N     -0.7873877111     -2.0538202555     -0.1116382342
 O     -6.5850344331      2.1454484967      0.8251627488
 O     -0.0969376156      3.7951515543      0.5224312402
 O     -1.5405857826     -2.6308733619      0.6378345060
 O     -7.1337306005      1.0300522832     -1.0292270215
 O     -1.9583372729      4.2490655288     -0.6707453281
 O      0.2855820541     -2.2232834273     -0.5988160892
20
# ORCA AIMD Position Step 21, t=21.00 fs, E_Pot=-957.18945196 Hartree, Unit is Angstrom
 C     -2.6150750270      1.4826279969     -0.1855414034
 C     -3.9815452045      2.2092158031      0.5059213402
 O     -4.7172603045      1.3143461979     -0.2850491502
 H     -4.5361828003      3.5343229142      0.1148450674
 H     -3.9852768695      2.0236900587      1.7481477256
 C     -2.6102014238     -0.1765252402      0.0317210451
 O     -1.1907347914     -0.5756312819     -0.4165806473
 H     -3.5091022699     -0.3739845302     -0.5129779714
 H     -2.5256591834     -0.5109270939      1.0498850851
 O     -1.2293686204      1.7248791613      0.2893103452
 H     -2.8564463669      1.8277017765     -1.0882998823
 N     -6.5045816293      1.4508126766     -0.1299790476
 N     -1.0407253924      3.6164174176     -0.1829034522
 N     -0.7998192232     -2.0568043948     -0.1010031981
 O     -6.5924051179      2.1294799823      0.8372291307
 O     -0.0819772892      3.7779428313      0.5183467494
 O     -1.5448971012     -2.6319166330      0.6286656106
 O     -7.1269231312      1.0453755086     -1.0426831254
 O     -1.9640036366      4.2595726327     -0.6495801262
 O      0.2852515823     -2.2301223017     -0.6127830345
20
# ORCA AIMD Position Step 22, t=22.00 fs, E_Pot=-957.19600832 Hartree, Unit is Angstrom
 C     -2.6159277810      1.4913574613     -0.1627294644
 C     -3.9836412778      2.2016078012      0.4998509757
 O     -4.7109389850      1.3330363983     -0.2693094758
 H     -4.5540384503      3.5126453142      0.1381540613
 H     -3.9322735238      2.0059841123      1.6880727509
 C     -2.6121462469     -0.1881333346      0.0162384028
 O     -1.2124911818     -0.5712126203     -0.4208863516
 H     -3.5062475659     -0.3981495723     -0.4979186509
 H     -2.5260142328     -0.5481325118      1.0205226722
 O     -1.2186818032      1.7155295602      0.2751860910
 H     -2.8631706202      1.8445488096     -1.0992192639
 N     -6.5015826401      1.4596968146     -0.1392687304
 N     -1.0274357765      3.6266841865     -0.1690643170
 N     -0.8118458276     -2.0577098279     -0.0909344406
 O     -6.6011724170      2.1136345471      0.8501874056
 O     -0.0666954398      3.7615786198      0.5135575648
 O     -1.5495445610     -2.6338732117      0.6197377354
 O     -7.1205358123      1.0604675742     -1.0566828085
 O     -1.9688747797      4.2696567864     -0.6281025801
 O      0.2846107761     -2.2377061816     -0.6266495646
20
# ORCA AIMD Position Step 23, t=23.00 fs, E_Pot=-957.20552151 Hartree, Unit is Angstrom
 C     -2.6140579140      1.4988188404     -0.1364647978
 C     -3.9864478898      2.1944004693      0.4945031332
 O     -4.7057199712      1.3512635075     -0.2537733617
 H     -4.5501906033      3.4637542477      0.1741567790
 H     -3.8838734809      1.9946118055      1.6087463664
 C     -2.6116410552     -0.1977296166      0.0005977736
 O     -1.2354991760     -0.5669387465     -0.4258702932
 H     -3.5137176184     -0.4382949807     -0.4960518684
 H     -2.5365349997     -0.5837241621      1.0048077694
 O     -1.2101899775      1.7076594383      0.2597885644
 H     -2.8643773966      1.8633280134     -1.1420916512
 N     -6.4961595093      1.4695676078     -0.1480299595
 N     -1.0150160439      3.6357952569     -0.1540001442
 N     -0.8223042591     -2.0563590770     -0.0824113375
 O     -6.6113232696      2.0978311169      0.8638044081
 O     -0.0507648209      3.7462732507      0.5083558925
 O     -1.5549162276     -2.6370529966      0.6115115504
 O     -7.1145391824      1.0753223372     -1.0712221305
 O     -1.9725986118      4.2791790390     -0.6061733302
 O      0.2830037037     -2.2458275836     -0.6400212164
20
# ORCA AIMD Position Step 24, t=24.00 fs, E_Pot=-957.20878641 Hartree, Unit is Angstrom
 C     -2.6097920605      1.5054452697     -0.1095126839
 C     -3.9895415794      2.1883314981      0.4896742786
 O     -4.7019249163      1.3684001325     -0.2390253432
 H     -4.5237118842      3.3902495384      0.2218071792
 H     -3.8420471334      1.9881899832      1.5254160019
 C     -2.6089981098     -0.2053793375     -0.0146977084