
                                 *****************
                                 * O   R   C   A *
                                 *****************

                                            #,                                       
                                            ###                                      
                                            ####                                     
                                            #####                                    
                                            ######                                   
                                           ########,                                 
                                     ,,################,,,,,                         
                               ,,#################################,,                 
                          ,,##########################################,,             
                       ,#########################################, ''#####,          
                    ,#############################################,,   '####,        
                  ,##################################################,,,,####,       
                ,###########''''           ''''###############################       
              ,#####''   ,,,,##########,,,,          '''####'''          '####       
            ,##' ,,,,###########################,,,                        '##       
           ' ,,###''''                  '''############,,,                           
         ,,##''                                '''############,,,,        ,,,,,,###''
      ,#''                                            '''#######################'''  
     '                                                          ''''####''''         
             ,#######,   #######,   ,#######,      ##                                
            ,#'     '#,  ##    ##  ,#'     '#,    #''#        ######   ,####,        
            ##       ##  ##   ,#'  ##            #'  '#       #        #'  '#        
            ##       ##  #######   ##           ,######,      #####,   #    #        
            '#,     ,#'  ##    ##  '#,     ,#' ,#      #,         ##   #,  ,#        
             '#######'   ##     ##  '#######'  #'      '#     #####' # '####'        



                  #######################################################
                  #                        -***-                        #
                  #          Department of theory and spectroscopy      #
                  #    Directorship and core code : Frank Neese         #
                  #        Max Planck Institute fuer Kohlenforschung    #
                  #                Kaiser Wilhelm Platz 1               #
                  #                 D-45470 Muelheim/Ruhr               #
                  #                      Germany                        #
                  #                                                     #
                  #                  All rights reserved                #
                  #                        -***-                        #
                  #######################################################



                         Program Version 5.0.4 -  RELEASE  -

 With contributions from (in alphabetic order):
   Daniel Aravena         : Magnetic Suceptibility
   Michael Atanasov       : Ab Initio Ligand Field Theory (pilot matlab implementation)
   Alexander A. Auer      : GIAO ZORA, VPT2 properties, NMR spectrum
   Ute Becker             : Parallelization
   Giovanni Bistoni       : ED, misc. LED, open-shell LED, HFLD
   Martin Brehm           : Molecular dynamics
   Dmytro Bykov           : SCF Hessian
   Vijay G. Chilkuri      : MRCI spin determinant printing, contributions to CSF-ICE
   Dipayan Datta          : RHF DLPNO-CCSD density
   Achintya Kumar Dutta   : EOM-CC, STEOM-CC
   Dmitry Ganyushin       : Spin-Orbit,Spin-Spin,Magnetic field MRCI
   Miquel Garcia          : C-PCM and meta-GGA Hessian, CC/C-PCM, Gaussian charge scheme
   Yang Guo               : DLPNO-NEVPT2, F12-NEVPT2, CIM, IAO-localization
   Andreas Hansen         : Spin unrestricted coupled pair/coupled cluster methods
   Benjamin Helmich-Paris : MC-RPA, TRAH-SCF, COSX integrals
   Lee Huntington         : MR-EOM, pCC
   Robert Izsak           : Overlap fitted RIJCOSX, COSX-SCS-MP3, EOM
   Marcus Kettner         : VPT2
   Christian Kollmar      : KDIIS, OOCD, Brueckner-CCSD(T), CCSD density, CASPT2, CASPT2-K
   Simone Kossmann        : Meta GGA functionals, TD-DFT gradient, OOMP2, MP2 Hessian
   Martin Krupicka        : Initial AUTO-CI
   Lucas Lang             : DCDCAS
   Marvin Lechner         : AUTO-CI (C++ implementation), FIC-MRCC
   Dagmar Lenk            : GEPOL surface, SMD
   Dimitrios Liakos       : Extrapolation schemes; Compound Job, initial MDCI parallelization
   Dimitrios Manganas     : Further ROCIS development; embedding schemes
   Dimitrios Pantazis     : SARC Basis sets
   Anastasios Papadopoulos: AUTO-CI, single reference methods and gradients
   Taras Petrenko         : DFT Hessian,TD-DFT gradient, ASA, ECA, R-Raman, ABS, FL, XAS/XES, NRVS
   Peter Pinski           : DLPNO-MP2, DLPNO-MP2 Gradient
   Christoph Reimann      : Effective Core Potentials
   Marius Retegan         : Local ZFS, SOC
   Christoph Riplinger    : Optimizer, TS searches, QM/MM, DLPNO-CCSD(T), (RO)-DLPNO pert. Triples
   Tobias Risthaus        : Range-separated hybrids, TD-DFT gradient, RPA, STAB
   Michael Roemelt        : Original ROCIS implementation
   Masaaki Saitow         : Open-shell DLPNO-CCSD energy and density
   Barbara Sandhoefer     : DKH picture change effects
   Avijit Sen             : IP-ROCIS
   Kantharuban Sivalingam : CASSCF convergence, NEVPT2, FIC-MRCI
   Bernardo de Souza      : ESD, SOC TD-DFT
   Georgi Stoychev        : AutoAux, RI-MP2 NMR, DLPNO-MP2 response
   Willem Van den Heuvel  : Paramagnetic NMR
   Boris Wezisla          : Elementary symmetry handling
   Frank Wennmohs         : Technical directorship


 We gratefully acknowledge several colleagues who have allowed us to
 interface, adapt or use parts of their codes:
   Stefan Grimme, W. Hujo, H. Kruse, P. Pracht,  : VdW corrections, initial TS optimization,
                  C. Bannwarth, S. Ehlert          DFT functionals, gCP, sTDA/sTD-DF
   Ed Valeev, F. Pavosevic, A. Kumar             : LibInt (2-el integral package), F12 methods
   Garnet Chan, S. Sharma, J. Yang, R. Olivares  : DMRG
   Ulf Ekstrom                                   : XCFun DFT Library
   Mihaly Kallay                                 : mrcc  (arbitrary order and MRCC methods)
   Jiri Pittner, Ondrej Demel                    : Mk-CCSD
   Frank Weinhold                                : gennbo (NPA and NBO analysis)
   Christopher J. Cramer and Donald G. Truhlar   : smd solvation model
   Lars Goerigk                                  : TD-DFT with DH, B97 family of functionals
   V. Asgeirsson, H. Jonsson                     : NEB implementation
   FAccTs GmbH                                   : IRC, NEB, NEB-TS, DLPNO-Multilevel, CI-OPT
                                                   MM, QMMM, 2- and 3-layer-ONIOM, Crystal-QMMM,
                                                   LR-CPCM, SF, NACMEs, symmetry and pop. for TD-DFT,
                                                   nearIR, NL-DFT gradient (VV10), updates on ESD,
                                                   ML-optimized integration grids
   S Lehtola, MJT Oliveira, MAL Marques          : LibXC Library
   Liviu Ungur et al                             : ANISO software


 Your calculation uses the libint2 library for the computation of 2-el integrals
 For citations please refer to: http://libint.valeyev.net

 Your ORCA version has been built with support for libXC version: 5.1.0
 For citations please refer to: https://tddft.org/programs/libxc/

 This ORCA versions uses:
   CBLAS   interface :  Fast vector & matrix operations
   LAPACKE interface :  Fast linear algebra routines
   Shared memory     :  Shared parallel matrices


Your calculation utilizes the atom-pairwise dispersion correction
with the Becke-Johnson damping scheme (D3BJ)
Cite in your paper:
S.Grimme, S.Ehrlich, L.Goerigk, J Comput Chem, (2011), 32, 1456–1465 
S.Grimme, J.Antony, S.Ehrlich and H.Krieg, J.Chem.Phys., 132, (2010), 154104 
   

================================================================================

----- Orbital basis set information -----
Your calculation utilizes the basis: def2-TZVP
   F. Weigend and R. Ahlrichs, Phys. Chem. Chem. Phys. 7, 3297 (2005).

----- AuxJ basis set information -----
Your calculation utilizes the auxiliary basis: def2/J
   F. Weigend, Phys. Chem. Chem. Phys. 8, 1057 (2006).

================================================================================
                                        WARNINGS
                       Please study these warnings very carefully!
================================================================================


WARNING: Geometry Optimization
  ===> : Switching off AutoStart
         For restart on a previous wavefunction, please use MOREAD

INFO   : the flag for use of the SHARK integral package has been found!

================================================================================
                                       INPUT FILE
================================================================================
NAME = e_c_13_5.inp
|  1> !B3LYP DEF2-TZVP D3BJ OPT FREQ SOSCF
|  2> 
|  3> %geom
|  4> convergence tight
|  5> maxIter 1000
|  6> end
|  7> 
|  8> * xyz 1 1 
|  9>    C       -5.65495        0.76371        4.17835
| 10>    C       -6.11139        1.49879        3.04645
| 11>    C       -6.01208        0.97022        1.77031
| 12>    C       -5.45312       -0.31020        1.58436
| 13>    C       -4.99640       -1.05329        2.69388
| 14>    C       -5.09655       -0.52279        3.97130
| 15>    C       -5.76867        1.35032        5.54538
| 16>    H       -5.39043        0.67384        6.32540
| 17>    H       -6.82216        1.60304        5.77420
| 18>    H       -5.21240        2.30642        5.60574
| 19>    H       -6.54407        2.49110        3.19800
| 20>    H       -6.36450        1.54047        0.90808
| 21>    H       -5.37284       -0.72956        0.57851
| 22>    H       -4.56463       -2.04503        2.54231
| 23>    H       -4.74437       -1.09431        4.83321
| 24>    N      -10.78743       -2.10601      -24.28204
| 25>    O      -10.42639       -1.92329      -23.19347
| 26>    O      -10.56840       -2.26572      -25.40842
| 27> **                         ****END OF INPUT****
================================================================================

                       *****************************
                       * Geometry Optimization Run *
                       *****************************

Geometry optimization settings:
Update method            Update   .... BFGS
Choice of coordinates    CoordSys .... Z-matrix Internals
Initial Hessian          InHess   .... Almoef's Model

Convergence Tolerances:
Energy Change            TolE     ....  1.0000e-06 Eh
Max. Gradient            TolMAXG  ....  1.0000e-04 Eh/bohr
RMS Gradient             TolRMSG  ....  3.0000e-05 Eh/bohr
Max. Displacement        TolMAXD  ....  1.0000e-03 bohr
RMS Displacement         TolRMSD  ....  6.0000e-04 bohr
Strict Convergence                ....  False
------------------------------------------------------------------------------
                        ORCA OPTIMIZATION COORDINATE SETUP
------------------------------------------------------------------------------

The optimization will be done in new redundant internal coordinates
Making redundant internal coordinates   ...  (new redundants) done
Evaluating the initial hessian          ...  (Almloef) done
Evaluating the coordinates              ...  done
Calculating the B-matrix                .... done
Calculating the G-matrix                .... done
Diagonalizing the G-matrix              .... done
Small eigenvalue found = 1.880e-02
The first mode is                       ....   54
The number of degrees of freedom        ....   48

    -----------------------------------------------------------------
                    Redundant Internal Coordinates


    -----------------------------------------------------------------
         Definition                    Initial Value    Approx d2E/dq
    -----------------------------------------------------------------
      1. B(C   1,C   0)                  1.4247         0.549942   
      2. B(C   2,C   1)                  1.3848         0.636753   
      3. B(C   3,C   2)                  1.4094         0.581757   
      4. B(C   4,C   3)                  1.4113         0.577739   
      5. B(C   5,C   4)                  1.3868         0.632145   
      6. B(C   5,C   0)                  1.4177         0.564426   
      7. B(C   6,C   0)                  1.4919         0.429672   
      8. B(H   7,C   6)                  1.0996         0.347621   
      9. B(H   8,C   6)                  1.1073         0.337952   
     10. B(H   9,C   6)                  1.1078         0.337314   
     11. B(H  10,C   1)                  1.0931         0.356028   
     12. B(H  11,C   2)                  1.0922         0.357247   
     13. B(H  12,C   3)                  1.0927         0.356517   
     14. B(H  13,C   4)                  1.0922         0.357174   
     15. B(H  14,C   5)                  1.0925         0.356809   
     16. B(O  16,H  12)                 24.3325         0.000000   
     17. B(O  16,H  11)                 24.6856         0.000000   
     18. B(O  16,C   3)                 25.3234         0.000000   
     19. B(O  16,N  15)                  1.1613         1.160961   
     20. B(O  17,N  15)                  1.1585         1.172987   
     21. A(C   1,C   0,C   5)          118.5786         0.417764   
     22. A(C   1,C   0,C   6)          120.0447         0.398080   
     23. A(C   5,C   0,C   6)          121.3767         0.399904   
     24. A(C   0,C   1,H  10)          119.0147         0.345183   
     25. A(C   0,C   1,C   2)          120.8106         0.426860   
     26. A(C   2,C   1,H  10)          120.1746         0.353824   
     27. A(C   3,C   2,H  11)          119.8777         0.348665   
     28. A(C   1,C   2,C   3)          119.7861         0.431188   
     29. A(C   1,C   2,H  11)          120.3362         0.354029   
     30. A(H  12,C   3,O  16)           24.3999         0.089000   
     31. A(C   2,C   3,O  16)           96.2619         0.089000   
     32. A(C   4,C   3,H  12)          119.8558         0.348138   
     33. A(C   4,C   3,O  16)          143.0573         0.089000   
     34. A(C   2,C   3,C   4)          120.1953         0.423737   
     35. A(C   2,C   3,H  12)          119.9489         0.348545   
     36. A(C   5,C   4,H  13)          120.2459         0.353581   
     37. A(C   3,C   4,H  13)          119.7962         0.348246   
     38. A(C   3,C   4,C   5)          119.9579         0.430090   
     39. A(C   4,C   5,H  14)          120.2190         0.353520   
     40. A(C   0,C   5,C   4)          120.6714         0.428295   
     41. A(C   0,C   5,H  14)          119.1096         0.346822   
     42. A(H   8,C   6,H   9)          105.6350         0.285038   
     43. A(H   7,C   6,H   9)          108.6379         0.286294   
     44. A(C   0,C   6,H   9)          110.5486         0.328322   
     45. A(H   7,C   6,H   8)          108.7289         0.286378   
     46. A(C   0,C   6,H   8)          110.5861         0.328425   
     47. A(C   0,C   6,H   7)          112.4497         0.329958   
     48. A(C   2,H  11,O  16)          138.6442         0.089000   
     49. A(C   3,H  12,O  16)          154.5371         0.089000   
     50. A(O  16,N  15,O  17)          150.9542         0.533363   
     51. A(H  11,O  16,N  15)          171.2597         0.089000   
     52. A(C   3,O  16,N  15)          171.1956         0.089000   
     53. A(H  11,O  16,H  12)            5.7860         0.089000   
     54. A(H  12,O  16,N  15)          171.1255         0.089000   
     55. D(C   2,C   1,C   0,C   6)    179.9241         0.020689   
     56. D(H  10,C   1,C   0,C   5)    179.9415         0.020689   
     57. D(H  10,C   1,C   0,C   6)     -0.1008         0.020689   
     58. D(C   2,C   1,C   0,C   5)     -0.0336         0.020689   
     59. D(C   3,C   2,C   1,H  10)   -179.9831         0.028151   
     60. D(H  11,C   2,C   1,C   0)    179.9963         0.028151   
     61. D(C   3,C   2,C   1,C   0)     -0.0082         0.028151   
     62. D(H  11,C   2,C   1,H  10)      0.0215         0.028151   
     63. D(O  16,C   3,C   2,H  11)     -6.1819         0.025257   
     64. D(H  12,C   3,C   2,H  11)      0.0374         0.025257   
     65. D(H  12,C   3,C   2,C   1)   -179.9581         0.025257   
     66. D(C   4,C   3,C   2,C   1)      0.0462         0.025257   
     67. D(C   4,C   3,C   2,H  11)   -179.9583         0.025257   
     68. D(O  16,C   3,C   2,C   1)    173.8227         0.025257   
     69. D(C   5,C   4,C   3,C   2)     -0.0416         0.024891   
     70. D(H  13,C   4,C   3,O  16)     10.3098         0.024891   
     71. D(H  13,C   4,C   3,H  12)     -0.0148         0.024891   
     72. D(H  13,C   4,C   3,C   2)    179.9809         0.024891   
     73. D(C   5,C   4,C   3,O  16)   -169.7128         0.024891   
     74. D(C   5,C   4,C   3,H  12)    179.9627         0.024891   
     75. D(H  14,C   5,C   4,H  13)     -0.0239         0.027719   
     76. D(C   0,C   5,C   4,H  13)    179.9762         0.027719   
     77. D(C   0,C   5,C   4,C   3)     -0.0012         0.027719   
     78. D(H  14,C   5,C   0,C   6)      0.0813         0.021836   
     79. D(C   4,C   5,C   0,C   6)   -179.9189         0.021836   
     80. D(H  14,C   5,C   4,C   3)    179.9987         0.027719   
     81. D(C   4,C   5,C   0,C   1)      0.0383         0.021836   
     82. D(H  14,C   5,C   0,C   1)   -179.9616         0.021836   
     83. D(H   8,C   6,C   0,C   1)     57.5819         0.013635   
     84. D(H   7,C   6,C   0,C   5)     -0.7052         0.013635   
     85. D(H   7,C   6,C   0,C   1)    179.3383         0.013635   
     86. D(H   9,C   6,C   0,C   5)    120.9072         0.013635   
     87. D(H   9,C   6,C   0,C   1)    -59.0493         0.013635   
     88. D(H   8,C   6,C   0,C   5)   -122.4616         0.013635   
     89. D(O  16,H  11,C   2,C   3)      9.5664         0.107529   
     90. D(O  16,H  11,C   2,C   1)   -170.4381         0.107529   
     91. D(O  16,H  12,C   3,C   4)    164.8855         0.118550   
     92. D(O  16,H  12,C   3,C   2)    -15.1102         0.118550   
     93. D(H  12,O  16,N  15,O  17)   -135.6692         0.153878   
     94. D(C   3,O  16,N  15,O  17)   -142.5758         0.153878   
     95. D(H  11,O  16,H  12,C   3)     13.0958         0.001500   
     96. D(N  15,O  16,H  12,C   3)    -97.1915         0.001500   
     97. D(H  12,O  16,H  11,C   2)     -8.4557         0.001500   
     98. D(N  15,O  16,H  11,C   2)     99.3192         0.001500   
     99. D(N  15,O  16,C   3,H  12)     89.6332         0.001500   
    100. D(H  11,O  16,N  15,O  17)   -174.1524         0.153878   
    101. D(N  15,O  16,C   3,C   4)     67.5305         0.001500   
    102. D(N  15,O  16,C   3,C   2)   -103.5005         0.001500   
    -----------------------------------------------------------------

Number of atoms                         .... 18
Number of degrees of freedom            .... 102

         *************************************************************
         *                GEOMETRY OPTIMIZATION CYCLE   1            *
         *************************************************************
---------------------------------
CARTESIAN COORDINATES (ANGSTROEM)
---------------------------------
  C     -5.654950    0.763710    4.178350
  C     -6.111390    1.498790    3.046450
  C     -6.012080    0.970220    1.770310
  C     -5.453120   -0.310200    1.584360
  C     -4.996400   -1.053290    2.693880
  C     -5.096550   -0.522790    3.971300
  C     -5.768670    1.350320    5.545380
  H     -5.390430    0.673840    6.325400
  H     -6.822160    1.603040    5.774200
  H     -5.212400    2.306420    5.605740
  H     -6.544070    2.491100    3.198000
  H     -6.364500    1.540470    0.908080
  H     -5.372840   -0.729560    0.578510
  H     -4.564630   -2.045030    2.542310
  H     -4.744370   -1.094310    4.833210
  N    -10.787430   -2.106010  -24.282040
  O    -10.426390   -1.923290  -23.193470
  O    -10.568400   -2.265720  -25.408420

----------------------------
CARTESIAN COORDINATES (A.U.)
----------------------------
  NO LB      ZA    FRAG     MASS         X           Y           Z
   0 C     6.0000    0    12.011  -10.686307    1.443203    7.895937
   1 C     6.0000    0    12.011  -11.548853    2.832303    5.756956
   2 C     6.0000    0    12.011  -11.361185    1.833450    3.345401
   3 C     6.0000    0    12.011  -10.304903   -0.586193    2.994006
   4 C     6.0000    0    12.011   -9.441828   -1.990430    5.090695
   5 C     6.0000    0    12.011   -9.631084   -0.987930    7.504669
   6 C     6.0000    0    12.011  -10.901206    2.551735   10.479250
   7 H     1.0000    0     1.008  -10.186436    1.273373   11.953274
   8 H     1.0000    0     1.008  -12.892014    3.029307   10.911657
   9 H     1.0000    0     1.008   -9.850009    4.358502   10.593313
  10 H     1.0000    0     1.008  -12.366500    4.707497    6.043344
  11 H     1.0000    0     1.008  -12.027162    2.911066    1.716023
  12 H     1.0000    0     1.008  -10.153196   -1.378669    1.093225
  13 H     1.0000    0     1.008   -8.625901   -3.864547    4.804270
  14 H     1.0000    0     1.008   -8.965560   -2.067946    9.133443
  15 N     7.0000    0    14.007  -20.385288   -3.979782  -45.886406
  16 O     8.0000    0    15.999  -19.703022   -3.634491  -43.829306
  17 O     8.0000    0    15.999  -19.971382   -4.281590  -48.014955

--------------------------------
INTERNAL COORDINATES (ANGSTROEM)
--------------------------------
 C      0   0   0     0.000000000000     0.00000000     0.00000000
 C      1   0   0     1.424737761835     0.00000000     0.00000000
 C      2   1   0     1.384840070405   120.81063721     0.00000000
 C      3   2   1     1.409428629091   119.78612645     0.00000000
 C      4   3   2     1.411315179859   120.19530541     0.04619093
 C      5   4   3     1.386817265865   119.95793008   359.95838420
 C      1   2   3     1.491916402283   120.04466865   179.92408967
 H      7   1   2     1.099600785922   112.44974685   179.33827963
 H      7   1   2     1.107279174779   110.58605539    57.58190174
 H      7   1   2     1.107793686794   110.54858588   300.95072193
 H      2   1   3     1.093095842550   119.01471937   179.97515147
 H      3   2   1     1.092165505681   120.33620972   179.99634535
 H      4   3   2     1.092722247646   119.94893827   180.04187101
 H      5   4   3     1.092221143084   119.79616766   179.98090248
 H      6   5   4     1.092499295606   120.21903234   179.99867783
 N     13   4   3    25.480568003345   154.58464594   343.95840916
 O     16  13   4     1.161344533246     8.47167746    83.64957451
 O     16  13   4     1.158539308526   156.32764670   141.32165451

---------------------------
INTERNAL COORDINATES (A.U.)
---------------------------
 C      0   0   0     0.000000000000     0.00000000     0.00000000
 C      1   0   0     2.692364182525     0.00000000     0.00000000
 C      2   1   0     2.616968472346   120.81063721     0.00000000
 C      3   2   1     2.663434114289   119.78612645     0.00000000
 C      4   3   2     2.666999178579   120.19530541     0.04619093
 C      5   4   3     2.620704830277   119.95793008   359.95838420
 C      1   2   3     2.819313415019   120.04466865   179.92408967
 H      7   1   2     2.077944342037   112.44974685   179.33827963
 H      7   1   2     2.092454394127   110.58605539    57.58190174
 H      7   1   2     2.093426680927   110.54858588   300.95072193
 H      2   1   3     2.065651780547   119.01471937   179.97515147
 H      3   2   1     2.063893698653   120.33620972   179.99634535
 H      4   3   2     2.064945788493   119.94893827   180.04187101
 H      5   4   3     2.063998838107   119.79616766   179.98090248
 H      6   5   4     2.064524470198   120.21903234   179.99867783
 N     13   4   3    48.151295263079   154.58464594   343.95840916
 O     16  13   4     2.194623114961     8.47167746    83.64957451
 O     16  13   4     2.189322008497   156.32764670   141.32165451

---------------------
BASIS SET INFORMATION
---------------------
There are 4 groups of distinct atoms

 Group   1 Type C   : 11s6p2d1f contracted to 5s3p2d1f pattern {62111/411/11/1}
 Group   2 Type H   : 5s1p contracted to 3s1p pattern {311/1}
 Group   3 Type N   : 11s6p2d1f contracted to 5s3p2d1f pattern {62111/411/11/1}
 Group   4 Type O   : 11s6p2d1f contracted to 5s3p2d1f pattern {62111/411/11/1}

Atom   0C    basis set group =>   1
Atom   1C    basis set group =>   1
Atom   2C    basis set group =>   1
Atom   3C    basis set group =>   1
Atom   4C    basis set group =>   1
Atom   5C    basis set group =>   1
Atom   6C    basis set group =>   1
Atom   7H    basis set group =>   2
Atom   8H    basis set group =>   2
Atom   9H    basis set group =>   2
Atom  10H    basis set group =>   2
Atom  11H    basis set group =>   2
Atom  12H    basis set group =>   2
Atom  13H    basis set group =>   2
Atom  14H    basis set group =>   2
Atom  15N    basis set group =>   3
Atom  16O    basis set group =>   4
Atom  17O    basis set group =>   4
---------------------------------
AUXILIARY/J BASIS SET INFORMATION
---------------------------------
There are 4 groups of distinct atoms

 Group   1 Type C   : 12s5p4d2f1g contracted to 6s4p3d1f1g pattern {711111/2111/211/2/1}
 Group   2 Type H   : 5s2p1d contracted to 3s1p1d pattern {311/2/1}
 Group   3 Type N   : 12s5p4d2f1g contracted to 6s4p3d1f1g pattern {711111/2111/211/2/1}
 Group   4 Type O   : 12s5p4d2f1g contracted to 6s4p3d1f1g pattern {711111/2111/211/2/1}

Atom   0C    basis set group =>   1
Atom   1C    basis set group =>   1
Atom   2C    basis set group =>   1
Atom   3C    basis set group =>   1
Atom   4C    basis set group =>   1
Atom   5C    basis set group =>   1
Atom   6C    basis set group =>   1
Atom   7H    basis set group =>   2
Atom   8H    basis set group =>   2
Atom   9H    basis set group =>   2
Atom  10H    basis set group =>   2
Atom  11H    basis set group =>   2
Atom  12H    basis set group =>   2
Atom  13H    basis set group =>   2
Atom  14H    basis set group =>   2
Atom  15N    basis set group =>   3
Atom  16O    basis set group =>   4
Atom  17O    basis set group =>   4
------------------------------------------------------------------------------
                           ORCA GTO INTEGRAL CALCULATION
                           -- RI-GTO INTEGRALS CHOSEN --
------------------------------------------------------------------------------
------------------------------------------------------------------------------
                   ___                                                        
                  /   \      - P O W E R E D   B Y -                         
                 /     \                                                     
                 |  |  |   _    _      __       _____    __    __             
                 |  |  |  | |  | |    /  \     |  _  \  |  |  /  |          
                  \  \/   | |  | |   /    \    | | | |  |  | /  /          
                 / \  \   | |__| |  /  /\  \   | |_| |  |  |/  /          
                |  |  |   |  __  | /  /__\  \  |    /   |      \           
                |  |  |   | |  | | |   __   |  |    \   |  |\   \          
                \     /   | |  | | |  |  |  |  | |\  \  |  | \   \       
                 \___/    |_|  |_| |__|  |__|  |_| \__\ |__|  \__/        
                                                                              
                      - O R C A' S   B I G   F R I E N D -                    
                                      &                                       
                       - I N T E G R A L  F E E D E R -                       
                                                                              
 v1 FN, 2020, v2 2021                                                         
------------------------------------------------------------------------------


Reading SHARK input file e_c_13_5.SHARKINP.tmp ... ok
----------------------
SHARK INTEGRAL PACKAGE
----------------------

Number of atoms                             ...     18
Number of basis functions                   ...    358
Number of shells                            ...    142
Maximum angular momentum                    ...      3
Integral batch strategy                     ... SHARK/LIBINT Hybrid
RI-J (if used) integral strategy            ... SPLIT-RIJ (Revised 2003 algorithm where possible)
Printlevel                                  ...      1
Contraction scheme used                     ... SEGMENTED contraction
Coulomb Range Separation                    ... NOT USED
Exchange Range Separation                   ... NOT USED
Finite Nucleus Model                        ... NOT USED
Auxiliary Coulomb fitting basis             ... AVAILABLE
   # of basis functions in Aux-J            ...    578
   # of shells in Aux-J                     ...    190
   Maximum angular momentum in Aux-J        ...      4
Auxiliary J/K fitting basis                 ... NOT available
Auxiliary Correlation fitting basis         ... NOT available
Auxiliary 'external' fitting basis          ... NOT available
Integral threshold                          ...     2.500000e-11
Primitive cut-off                           ...     2.500000e-12
Primitive pair pre-selection threshold      ...     2.500000e-12

Calculating pre-screening integrals         ... done (  0.2 sec) Dimension = 142
Organizing shell pair data                  ... done (  0.2 sec)
Shell pair information
Total number of shell pairs                 ...     10153
Shell pairs after pre-screening             ...      6190
Total number of primitive shell pairs       ...     31120
Primitive shell pairs kept                  ...     14655
          la=0 lb=0:   1708 shell pairs
          la=1 lb=0:   1739 shell pairs
          la=1 lb=1:    462 shell pairs
          la=2 lb=0:    885 shell pairs
          la=2 lb=1:    451 shell pairs
          la=2 lb=2:    125 shell pairs
          la=3 lb=0:    441 shell pairs
          la=3 lb=1:    229 shell pairs
          la=3 lb=2:    116 shell pairs
          la=3 lb=3:     34 shell pairs

Calculating one electron integrals          ... done (  0.1 sec)
Calculating RI/J V-Matrix + Cholesky decomp.... done (  0.1 sec)
Calculating Nuclear repulsion               ... done (  0.0 sec) ENN=    355.608710476479 Eh

SHARK setup successfully completed in   1.1 seconds

Maximum memory used throughout the entire GTOINT-calculation: 91.8 MB
-------------------------------------------------------------------------------
                                 ORCA SCF
-------------------------------------------------------------------------------

------------
SCF SETTINGS
------------
Hamiltonian:
 Density Functional     Method          .... DFT(GTOs)
 Exchange Functional    Exchange        .... B88
   X-Alpha parameter    XAlpha          ....  0.666667
   Becke's b parameter  XBeta           ....  0.004200
 Correlation Functional Correlation     .... LYP
 LDA part of GGA corr.  LDAOpt          .... VWN-5
 Gradients option       PostSCFGGA      .... off
 Hybrid DFT is turned on
   Fraction HF Exchange ScalHFX         ....  0.200000
   Scaling of DF-GGA-X  ScalDFX         ....  0.720000
   Scaling of DF-GGA-C  ScalDFC         ....  0.810000
   Scaling of DF-LDA-C  ScalLDAC        ....  1.000000
   Perturbative correction              ....  0.000000
   Density functional embedding theory  .... OFF
   NL short-range parameter             ....  4.800000
 RI-approximation to the Coulomb term is turned on
   Number of AuxJ basis functions       .... 578
   RIJ-COSX (HFX calculated with COS-X)).... on


General Settings:
 Integral files         IntName         .... e_c_13_5
 Hartree-Fock type      HFTyp           .... RHF
 Total Charge           Charge          ....    1
 Multiplicity           Mult            ....    1
 Number of Electrons    NEL             ....   72
 Basis Dimension        Dim             ....  358
 Nuclear Repulsion      ENuc            ....    355.6087104765 Eh

Convergence Acceleration:
 DIIS                   CNVDIIS         .... on
   Start iteration      DIISMaxIt       ....    12
   Startup error        DIISStart       ....  0.200000
   # of expansion vecs  DIISMaxEq       ....     5
   Bias factor          DIISBfac        ....   1.050
   Max. coefficient     DIISMaxC        ....  10.000
 Trust-Rad. Augm. Hess. CNVTRAH         .... auto
   Auto Start mean grad. ratio tolernc. ....  1.125000
   Auto Start start iteration           ....    20
   Auto Start num. interpolation iter.  ....    10
   Max. Number of Micro iterations      ....    16
   Max. Number of Macro iterations      .... Maxiter - #DIIS iter
   Number of Davidson start vectors     ....     2
   Converg. threshold I  (grad. norm)   ....   1.000e-05
   Converg. threshold II (energy diff.) ....   1.000e-08
   Grad. Scal. Fac. for Micro threshold ....   0.100
   Minimum threshold for Micro iter.    ....   0.010
   NR start threshold (gradient norm)   ....   0.001
   Initial trust radius                 ....   0.400
   Minimum AH scaling param. (alpha)    ....   1.000
   Maximum AH scaling param. (alpha)    .... 1000.000
   Orbital update algorithm             .... Taylor
   White noise on init. David. guess    .... on
   Maximum white noise                  ....   0.010
   Quad. conv. algorithm                .... NR
 SOSCF                  CNVSOSCF        .... on
   Start iteration      SOSCFMaxIt      ....   150
   Startup grad/error   SOSCFStart      ....  0.003300
 Level Shifting         CNVShift        .... on
   Level shift para.    LevelShift      ....    0.2500
   Turn off err/grad.   ShiftErr        ....    0.0010
 Zerner damping         CNVZerner       .... off
 Static damping         CNVDamp         .... on
   Fraction old density DampFac         ....    0.7000
   Max. Damping (<1)    DampMax         ....    0.9800
   Min. Damping (>=0)   DampMin         ....    0.0000
   Turn off err/grad.   DampErr         ....    0.1000
 Fernandez-Rico         CNVRico         .... off

SCF Procedure:
 Maximum # iterations   MaxIter         ....   125
 SCF integral mode      SCFMode         .... Direct
   Integral package                     .... SHARK and LIBINT hybrid scheme
 Reset frequency        DirectResetFreq ....    20
 Integral Threshold     Thresh          ....  2.500e-11 Eh
 Primitive CutOff       TCut            ....  2.500e-12 Eh

Convergence Tolerance:
 Convergence Check Mode ConvCheckMode   .... Total+1el-Energy
 Convergence forced     ConvForced      .... 0
 Energy Change          TolE            ....  1.000e-08 Eh
 1-El. energy change                    ....  1.000e-05 Eh
 Orbital Gradient       TolG            ....  1.000e-05
 Orbital Rotation angle TolX            ....  1.000e-05
 DIIS Error             TolErr          ....  5.000e-07


Diagonalization of the overlap matrix:
Smallest eigenvalue                        ... 9.612e-06
Time for diagonalization                   ...    0.047 sec
Threshold for overlap eigenvalues          ... 1.000e-08
Number of eigenvalues below threshold      ... 0
Time for construction of square roots      ...    0.033 sec
Total time needed                          ...    0.081 sec

Time for model grid setup =    0.712 sec

------------------------------
INITIAL GUESS: MODEL POTENTIAL
------------------------------
Loading Hartree-Fock densities                     ... done
Calculating cut-offs                               ... done
Initializing the effective Hamiltonian             ... done
Setting up the integral package (SHARK)            ... done
Starting the Coulomb interaction                   ... done (   2.1 sec)
Reading the grid                                   ... done
Mapping shells                                     ... done
Starting the XC term evaluation                    ... done (   1.2 sec)
  promolecular density results
     # of electrons  =     72.993370828
     EX              =    -61.281528229
     EC              =     -2.469077581
     EX+EC           =    -63.750605809
Transforming the Hamiltonian                       ... done (   0.0 sec)
Diagonalizing the Hamiltonian                      ... done (   0.0 sec)
Back transforming the eigenvectors                 ... done (   0.0 sec)
Now organizing SCF variables                       ... done
                      ------------------
                      INITIAL GUESS DONE (   4.3 sec)
                      ------------------
-------------------
DFT GRID GENERATION
-------------------

General Integration Accuracy     IntAcc      ... 4.388
Radial Grid Type                 RadialGrid  ... OptM3 with GC (2021)
Angular Grid (max. ang.)         AngularGrid ... 4 (Lebedev-302)
Angular grid pruning method      GridPruning ... 4 (adaptive)
Weight generation scheme         WeightScheme... Becke
Basis function cutoff            BFCut       ... 1.0000e-11
Integration weight cutoff        WCut        ... 1.0000e-14
Angular grids for H and He will be reduced by one unit
Partially contracted basis set               ... off
Rotationally invariant grid construction     ... off

Total number of grid points                  ...    86312
Total number of batches                      ...     1357
Average number of points per batch           ...       63
Average number of grid points per atom       ...     4795
Time for grid setup =    2.303 sec

--------------------
COSX GRID GENERATION
--------------------

GRIDX 1
-------
General Integration Accuracy     IntAcc      ... 3.816
Radial Grid Type                 RadialGrid  ... OptM3 with GC (2021)
Angular Grid (max. ang.)         AngularGrid ... 1 (Lebedev-50)
Angular grid pruning method      GridPruning ... 4 (adaptive)
Weight generation scheme         WeightScheme... Becke
Basis function cutoff            BFCut       ... 1.0000e-11
Integration weight cutoff        WCut        ... 1.0000e-14
Angular grids for H and He will be reduced by one unit
Partially contracted basis set               ... on
Rotationally invariant grid construction     ... off

Total number of grid points                  ...    11047
Total number of batches                      ...      179
Average number of points per batch           ...       61
Average number of grid points per atom       ...      614
UseSFitting                                  ... on

GRIDX 2
-------
General Integration Accuracy     IntAcc      ... 4.020
Radial Grid Type                 RadialGrid  ... OptM3 with GC (2021)
Angular Grid (max. ang.)         AngularGrid ... 2 (Lebedev-110)
Angular grid pruning method      GridPruning ... 4 (adaptive)
Weight generation scheme         WeightScheme... Becke
Basis function cutoff            BFCut       ... 1.0000e-11
Integration weight cutoff        WCut        ... 1.0000e-14
Angular grids for H and He will be reduced by one unit
Partially contracted basis set               ... on
Rotationally invariant grid construction     ... off

Total number of grid points                  ...    24409
Total number of batches                      ...      390
Average number of points per batch           ...       62
Average number of grid points per atom       ...     1356
UseSFitting                                  ... on

GRIDX 3
-------
General Integration Accuracy     IntAcc      ... 4.338
Radial Grid Type                 RadialGrid  ... OptM3 with GC (2021)
Angular Grid (max. ang.)         AngularGrid ... 3 (Lebedev-194)
Angular grid pruning method      GridPruning ... 4 (adaptive)
Weight generation scheme         WeightScheme... Becke
Basis function cutoff            BFCut       ... 1.0000e-11
Integration weight cutoff        WCut        ... 1.0000e-14
Angular grids for H and He will be reduced by one unit
Partially contracted basis set               ... on
Rotationally invariant grid construction     ... off

Total number of grid points                  ...    53773
Total number of batches                      ...      849
Average number of points per batch           ...       63
Average number of grid points per atom       ...     2987
UseSFitting                                  ... on

Time for X-Grid setup             =    3.740 sec

--------------
SCF ITERATIONS
--------------
ITER       Energy         Delta-E        Max-DP      RMS-DP      [F,P]     Damp
               ***  Starting incremental Fock matrix formation  ***
  0   -475.8611659399   0.000000000000 0.16865199  0.00188504  0.1996224 0.7000
  1   -475.8893445014  -0.028178561476 0.04296586  0.00072065  0.1340855 0.7000
                               ***Turning on DIIS***
  2   -476.0716511094  -0.182306608045 0.09399258  0.00155340  0.0335074 0.0000
  3   -476.1108733101  -0.039222200655 0.00441537  0.00009622  0.1317087 0.7000
  4   -476.1239188528  -0.013045542667 0.00463272  0.00010609  0.1161158 0.7000
  5   -476.1359295264  -0.012010673627 0.00483645  0.00011864  0.1009910 0.7000
  6   -476.1468129459  -0.010883419486 0.01977819  0.00048983  0.0859183 0.0000
  7   -476.1764432529  -0.029630307061 0.01452721  0.00031831  0.0309982 0.0000
  8   -476.1804665862  -0.004023333216 0.00642512  0.00013167  0.0084384 0.0000
  9   -476.1806316542  -0.000165068039 0.00260333  0.00005385  0.0062899 0.0000
                      *** Initiating the SOSCF procedure ***
                           *** Shutting down DIIS ***
                      *** Re-Reading the Fockian *** 
                      *** Removing any level shift *** 
ITER      Energy       Delta-E        Grad      Rot      Max-DP    RMS-DP
 10   -476.18069515  -0.0000634960  0.000276  0.000276  0.355957  0.005784
               *** Restarting incremental Fock matrix formation ***
 11   -471.50316087   4.6775342800  0.264785  0.523968  1.671034  0.007365
 12   -472.16551536  -0.6623544920  0.138149  0.135464  3.563751  0.013534
 13   -472.41189158  -0.2463762205  0.093296  0.292642 18.679971  0.070351
 14   -472.60379489  -0.1919033026  0.150631  0.214066  1.526313  0.005955
 15   -472.74098564  -0.1371907570  0.094474  0.116108 13.145683  0.050077
 16   -472.70400763   0.0369780102  0.176136  0.300491  0.106950  0.000768
 17   -472.81922947  -0.1152218390  0.089868  0.302596  6.928661  0.025653
 18   -472.77541544   0.0438140292  0.101701  0.112677  0.270793  0.001212
 19   -472.85277128  -0.0773558398  0.084462  0.483338  1.435087  0.006616

 WARNING: the maximum gradient error descreased on average only by a factor   1.0
          during the last 20 iterations

                      *** Initiating the TRAH-SCF procedure ***

              ***Rediagonalizing the Fockian in SOSCF/NRSCF***

TRAH GRIDX
----------

General Integration Accuracy     IntAcc      ... 3.067
Radial Grid Type                 RadialGrid  ... OptM3 with GC (2021)
Angular Grid (max. ang.)         AngularGrid ... 1 (Lebedev-50)
Angular grid pruning method      GridPruning ... 4 (adaptive)
Weight generation scheme         WeightScheme... Becke
Basis function cutoff            BFCut       ... 1.0000e-11
Integration weight cutoff        WCut        ... 1.0000e-14
Angular grids for H and He will be reduced by one unit
Partially contracted basis set               ... on
Rotationally invariant grid construction     ... off

Total number of grid points                  ...     5829
Total number of batches                      ...      102
Average number of points per batch           ...       57
Average number of grid points per atom       ...      324


TRAH GRID
---------

General Integration Accuracy     IntAcc      ... 3.467
Radial Grid Type                 RadialGrid  ... OptM3 with GC (2021)
Angular Grid (max. ang.)         AngularGrid ... 1 (Lebedev-50)
Angular grid pruning method      GridPruning ... 4 (adaptive)
Weight generation scheme         WeightScheme... Becke
Basis function cutoff            BFCut       ... 1.0000e-11
Integration weight cutoff        WCut        ... 1.0000e-14
Angular grids for H and He will be reduced by one unit
Partially contracted basis set               ... off
Rotationally invariant grid construction     ... off

Total number of grid points                  ...    12746
Total number of batches                      ...      206
Average number of points per batch           ...       61
Average number of grid points per atom       ...      708

 --------------------------------------------------------------------------------------------
   Iter.        energy            ||Error||_2        Shift      TRadius  Mac/Mic        Rej.
 --------------------------------------------------------------------------------------------
WARNING: 668 diagonal Hessian elements are negative!
    0       -472.569872022804     2.446507e+00                     0.400 (TRAH MAcro)   No
WARNING : negative HOMO - LUMO gap : -1.908647
    0     dE    -3.161096e-01     2.643958e+00    -5.9670e-01      0.244 (TRAH MIcro)
    0     dE    -5.126382e-01     8.478530e-01    -1.6215e+00      0.400 (TRAH MIcro)
    0     dE    -2.851581e-01     8.625439e-01    -8.6353e+00      0.156 (TRAH MIcro)
    0     dE    -2.919308e-01     2.878535e-01    -8.8029e+00      0.157 (TRAH MIcro)
    0     dE    -2.914305e-01     1.815953e-01    -8.8262e+00      0.156 (TRAH MIcro)
    0     dE    -2.914059e-01     1.633455e-02    -8.8407e+00      0.156 (TRAH MIcro)
    0     dE    -2.913909e-01     1.111339e-02    -8.8409e+00      0.156 (TRAH MIcro)
    0     dE    -2.913759e-01     5.014707e-03    -8.8410e+00      0.156 (TRAH MIcro)
WARNING: 656 diagonal Hessian elements are negative!
    1       -472.857923287064     1.317633e+00                     0.480 (TRAH MAcro)   No
WARNING : negative HOMO - LUMO gap : -1.816238
    1     dE    -1.214408e-01     6.932033e-01    -2.3537e-01      0.179 (TRAH MIcro)
    1     dE    -1.873006e-01     6.547161e-01    -3.3309e-01      0.353 (TRAH MIcro)
    1     dE    -9.043769e-02     2.014918e-01    -8.7581e+00      0.088 (TRAH MIcro)
    1     dE    -9.188646e-02     3.146519e-02    -8.8407e+00      0.089 (TRAH MIcro)
    1     dE    -9.190737e-02     1.136942e-02    -8.8447e+00      0.089 (TRAH MIcro)
    1     dE    -9.191094e-02     7.462404e-03    -8.8449e+00      0.089 (TRAH MIcro)
WARNING: 651 diagonal Hessian elements are negative!
    2       -472.949379218009     7.705878e-01                     0.576 (TRAH MAcro)   No
WARNING : negative HOMO - LUMO gap : -1.777519
    2     dE    -4.967964e-02     4.177577e-01    -9.7783e-02      0.127 (TRAH MIcro)
    2     dE    -9.282040e-02     9.330039e-01    -1.6378e-01      0.365 (TRAH MIcro)
    2     dE    -1.022448e+00     2.340236e+00    -5.9601e+00      0.576 (TRAH MIcro)
    2     dE    -3.106979e-02     1.070748e-01    -1.0289e+01      0.049 (TRAH MIcro)
    2     dE    -3.165936e-02     3.487209e-02    -1.0375e+01      0.050 (TRAH MIcro)
    2     dE    -3.174501e-02     9.050229e-03    -1.0392e+01      0.050 (TRAH MIcro)
WARNING: 651 diagonal Hessian elements are negative!
    3       -472.981060620623     5.143653e-01                     0.691 (TRAH MAcro)   No
WARNING : negative HOMO - LUMO gap : -1.761131
    3     dE    -2.704499e-02     3.995259e-01    -5.3505e-02      0.105 (TRAH MIcro)
    3     dE    -1.881311e-01     5.734006e+00    -4.6530e-01      0.689 (TRAH MIcro)
    3     dE    -1.193931e-01     1.488539e-01    -7.0747e+00      0.174 (TRAH MIcro)
    3     dE    -1.397339e-01     7.228140e-02    -7.1163e+00      0.189 (TRAH MIcro)
    3     dE    -1.461432e-01     2.072421e-02    -7.1287e+00      0.193 (TRAH MIcro)
    3     dE    -1.464398e-01     1.065757e-02    -7.1301e+00      0.194 (TRAH MIcro)
    3     dE    -1.461679e-01     6.407535e-03    -7.1303e+00      0.193 (TRAH MIcro)
WARNING: 632 diagonal Hessian elements are negative!
    4       -473.123293681106     1.305216e+00                     0.829 (TRAH MAcro)   No
WARNING : negative HOMO - LUMO gap : -1.632280
    4     dE    -2.001162e+00     1.689241e+00    -7.4121e+00      0.652 (TRAH MIcro)
    4     dE    -2.402412e+00     2.870973e-01    -7.8372e+00      0.706 (TRAH MIcro)
    4     dE    -2.408686e+00     1.842592e-01    -7.8442e+00      0.707 (TRAH MIcro)
    4     dE    -2.412443e+00     7.388355e-02    -7.8473e+00      0.707 (TRAH MIcro)
    4     dE    -2.413766e+00     2.794735e-02    -7.8481e+00      0.707 (TRAH MIcro)
    4     dE    -2.414061e+00     1.678571e-02    -7.8482e+00      0.707 (TRAH MIcro)
    4     dE    -2.414199e+00     8.171682e-03    -7.8482e+00      0.707 (TRAH MIcro)
WARNING: 230 diagonal Hessian elements are negative!
    5       -474.729001829303     2.276557e+00                     0.829 (TRAH MAcro)   No
WARNING : negative HOMO - LUMO gap : -1.008767
    5     dE    -8.576640e-01     2.231677e+00    -1.2956e+00      0.569 (TRAH MIcro)
    5     dE    -1.037222e+00     8.301416e-01    -1.4356e+00      0.667 (TRAH MIcro)
    5     dE    -7.656436e-01     4.557699e-01    -3.4997e+00      0.426 (TRAH MIcro)
    5     dE    -1.527458e+00     1.751967e+00    -3.6291e+00      0.765 (TRAH MIcro)
    5     dE    -5.576211e-01     3.040918e-01    -5.6331e+00      0.288 (TRAH MIcro)
    5     dE    -5.580077e-01     1.353367e-01    -5.6395e+00      0.288 (TRAH MIcro)
    5     dE    -5.580226e-01     2.131953e-02    -5.6423e+00      0.288 (TRAH MIcro)
    5     dE    -5.580019e-01     9.015644e-03    -5.6425e+00      0.288 (TRAH MIcro)
WARNING: 115 diagonal Hessian elements are negative!
    6       -475.271622865551     1.478911e+00                     0.995 (TRAH MAcro)   No
WARNING : negative HOMO - LUMO gap : -0.828617
    6     dE    -3.543392e-01     6.929161e-01    -6.0645e-01      0.411 (TRAH MIcro)
    6     dE    -6.680157e-01     1.817442e+00    -2.0832e+00      0.621 (TRAH MIcro)
    6     dE    -8.537908e-01     2.815861e-01    -3.4371e+00      0.618 (TRAH MIcro)
    6     dE    -9.874474e-01     4.953147e-02    -3.4558e+00      0.676 (TRAH MIcro)
    6     dE    -9.935844e-01     1.816512e-02    -3.4564e+00      0.678 (TRAH MIcro)
    6     dE    -9.946873e-01     4.404777e-03    -3.4565e+00      0.679 (TRAH MIcro)
WARNING: 1 diagonal Hessian elements are negative!
    7       -475.942791386997     1.160857e+00                     0.995 (TRAH MAcro)   No
WARNING : negative HOMO - LUMO gap : -0.077542
    7     dE    -1.609107e-01     2.294000e+00    -3.0091e-01      0.264 (TRAH MIcro)
    7     dE    -2.689951e-01     1.163625e+00    -4.5103e-01      0.439 (TRAH MIcro)
    7     dE    -3.046508e-01     1.581057e-01    -4.9232e-01      0.487 (TRAH MIcro)
    7     dE    -3.067418e-01     8.544281e-02    -4.9410e-01      0.492 (TRAH MIcro)
    7     dE    -3.078754e-01     3.892918e-02    -4.9449e-01      0.495 (TRAH MIcro)
    7     dE    -3.083981e-01     1.061133e-02    -4.9457e-01      0.497 (TRAH MIcro)
    7     dE    -3.084957e-01     3.098883e-03    -4.9458e-01      0.497 (TRAH MIcro)
    8       -476.221403862672     2.022928e-01                     1.194 (TRAH MAcro)   No
WARNING : small    HOMO - LUMO gap : 0.001967
    8     dE    -3.570226e-03     2.982967e-01    -7.1316e-03      0.035 (TRAH MIcro)
    8     dE    -4.754084e-03     2.960773e-01    -9.4775e-03      0.057 (TRAH MIcro)
    8     dE    -9.662630e-03     1.469700e-01    -1.8785e-02      0.170 (TRAH MIcro)
    8     dE    -1.085641e-02     5.104821e-02    -2.0869e-02      0.201 (TRAH MIcro)
    8     dE    -1.139671e-02     4.844297e-02    -2.1430e-02      0.252 (TRAH MIcro)
    8     dE    -1.428054e-02     1.065279e-01    -2.2541e-02      0.517 (TRAH MIcro)
    8     dE    -3.180336e-02     1.279543e-01    -2.7703e-02      1.194 (TRAH MIcro)
    8     dE    -2.915188e-02     6.034039e-02    -2.9280e-02      1.094 (TRAH MIcro)
    8     dE    -3.144844e-02     2.096421e-02    -2.9447e-02      1.158 (TRAH MIcro)
    8     dE    -3.172789e-02     6.572480e-03    -2.9466e-02      1.166 (TRAH MIcro)
 ---------------------------------
          TRAH Step control 
 ---------------------------------
  predicted energy change = -0.031728
  actual energy  change   = 0.538267
  energy change ratio     = -16.965104
  old trust radius        = 1.194394
  new trust radius        = 0.836076
  reject step?            =  1
    9       -476.221403862672     1.160857e+00                     0.836 (TRAH MAcro)  Yes
   10       -476.221403862672     2.022928e-01                     0.836 (TRAH MAcro)   No
WARNING : small    HOMO - LUMO gap : 0.001967
   10     dE    -3.570442e-03     2.979417e-01    -7.1320e-03      0.035 (TRAH MIcro)
   10     dE    -4.753905e-03     2.962685e-01    -9.4772e-03      0.057 (TRAH MIcro)
   10     dE    -9.662326e-03     1.467229e-01    -1.8785e-02      0.169 (TRAH MIcro)
   10     dE    -1.085631e-02     5.104612e-02    -2.0869e-02      0.201 (TRAH MIcro)
   10     dE    -1.139437e-02     4.817354e-02    -2.1428e-02      0.252 (TRAH MIcro)
   10     dE    -1.427197e-02     1.064192e-01    -2.2538e-02      0.516 (TRAH MIcro)
   10     dE    -2.153117e-02     7.664213e-02    -2.9009e-02      0.836 (TRAH MIcro)
   10     dE    -2.178463e-02     4.034113e-02    -3.0182e-02      0.836 (TRAH MIcro)
   10     dE    -2.185804e-02     1.311142e-02    -3.0436e-02      0.836 (TRAH MIcro)
   10     dE    -2.186649e-02     4.188100e-03    -3.0463e-02      0.836 (TRAH MIcro)
 ---------------------------------
          TRAH Step control 
 ---------------------------------
  predicted energy change = -0.021866
  actual energy  change   = 0.208686
  energy change ratio     = -9.543654
  old trust radius        = 0.836076
  new trust radius        = 0.585253
  reject step?            =  1
   11       -476.221403862672     1.160857e+00                     0.585 (TRAH MAcro)  Yes
   12       -476.221403862672     2.022928e-01                     0.585 (TRAH MAcro)   No
WARNING : small    HOMO - LUMO gap : 0.001967
   12     dE    -3.569926e-03     2.982950e-01    -7.1310e-03      0.035 (TRAH MIcro)
   12     dE    -4.754331e-03     2.959898e-01    -9.4780e-03      0.057 (TRAH MIcro)
   12     dE    -9.663658e-03     1.469140e-01    -1.8786e-02      0.170 (TRAH MIcro)
   12     dE    -1.085755e-02     5.124798e-02    -2.0870e-02      0.201 (TRAH MIcro)
   12     dE    -1.139775e-02     4.840716e-02    -2.1431e-02      0.252 (TRAH MIcro)
   12     dE    -1.428096e-02     1.064870e-01    -2.2541e-02      0.517 (TRAH MIcro)
   12     dE    -1.621941e-02     4.121858e-02    -3.0934e-02      0.585 (TRAH MIcro)
   12     dE    -1.459298e-02     1.701445e-02    -3.3031e-02      0.487 (TRAH MIcro)
   12     dE    -1.467181e-02     6.441602e-03    -3.3068e-02      0.491 (TRAH MIcro)
 ---------------------------------
          TRAH Step control 
 ---------------------------------
  predicted energy change = -0.014672
  actual energy  change   = 0.019245
  energy change ratio     = -1.311700
  old trust radius        = 0.585253
  new trust radius        = 0.409677
  reject step?            =  1
   13       -476.221403862672     1.160857e+00                     0.410 (TRAH MAcro)  Yes
   14       -476.221403862672     2.022928e-01                     0.410 (TRAH MAcro)   No
WARNING : small    HOMO - LUMO gap : 0.001967
   14     dE    -3.571376e-03     2.983781e-01    -7.1339e-03      0.035 (TRAH MIcro)
   14     dE    -4.754216e-03     2.960115e-01    -9.4778e-03      0.057 (TRAH MIcro)
   14     dE    -9.661315e-03     1.469844e-01    -1.8783e-02      0.170 (TRAH MIcro)
   14     dE    -1.085536e-02     5.117567e-02    -2.0868e-02      0.201 (TRAH MIcro)
   14     dE    -1.139512e-02     4.839982e-02    -2.1429e-02      0.252 (TRAH MIcro)
   14     dE    -1.308438e-02     7.006414e-02    -2.6046e-02      0.410 (TRAH MIcro)
   14     dE    -1.340796e-02     2.118713e-02    -3.3505e-02      0.410 (TRAH MIcro)
   14     dE    -1.343189e-02     1.179676e-02    -3.4399e-02      0.410 (TRAH MIcro)
   14     dE    -1.343967e-02     3.841851e-03    -3.4480e-02      0.410 (TRAH MIcro)
 ---------------------------------
          TRAH Step control 
 ---------------------------------
  predicted energy change = -0.013440
  actual energy  change   = 0.002677
  energy change ratio     = -0.199203
  old trust radius        = 0.409677
  new trust radius        = 0.286774
  reject step?            =  1
   15       -476.221403862672     1.160857e+00                     0.287 (TRAH MAcro)  Yes
   16       -476.221403862672     2.022928e-01                     0.287 (TRAH MAcro)   No
WARNING : small    HOMO - LUMO gap : 0.001967
   16     dE    -3.570134e-03     2.982625e-01    -7.1314e-03      0.035 (TRAH MIcro)
   16     dE    -4.754421e-03     2.961772e-01    -9.4782e-03      0.057 (TRAH MIcro)
   16     dE    -9.663433e-03     1.468744e-01    -1.8787e-02      0.170 (TRAH MIcro)
   16     dE    -1.085684e-02     5.114935e-02    -2.0869e-02      0.201 (TRAH MIcro)
   16     dE    -1.139640e-02     4.839422e-02    -2.1430e-02      0.252 (TRAH MIcro)
   16     dE    -1.182944e-02     3.027523e-02    -3.4371e-02      0.287 (TRAH MIcro)
   16     dE    -1.188640e-02     9.143754e-03    -3.7733e-02      0.287 (TRAH MIcro)
   17       -476.230188562133     1.912718e-01                     0.287 (TRAH MAcro)   No
   17     dE    -2.264800e-03     2.949680e-01    -4.5269e-03      0.024 (TRAH MIcro)
   17     dE    -4.087741e-03     7.611355e-02    -8.1498e-03      0.056 (TRAH MIcro)
   17     dE    -4.873535e-03     4.014421e-02    -9.6855e-03      0.080 (TRAH MIcro)
   17     dE    -5.127673e-03     1.289984e-02    -1.0144e-02      0.105 (TRAH MIcro)
   17     dE    -5.139380e-03     5.594147e-03    -1.0163e-02      0.107 (TRAH MIcro)
   18       -476.236217594025     3.394462e-02                     0.344 (TRAH MAcro)   No
WARNING : small    HOMO - LUMO gap : 0.003251
   18     dE    -1.139559e-04     6.079134e-02    -2.2790e-04      0.007 (TRAH MIcro)
   18     dE    -5.806879e-04     1.391837e-01    -1.1558e-03      0.069 (TRAH MIcro)
   18     dE    -3.328516e-03     1.506506e-01    -6.0739e-03      0.310 (TRAH MIcro)
   18     dE    -5.083186e-03     2.846156e-02    -2.9460e-02      0.344 (TRAH MIcro)
   18     dE    -5.120157e-03     1.358573e-02    -3.0192e-02      0.344 (TRAH MIcro)
   18     dE    -5.133426e-03     4.373318e-03    -3.0473e-02      0.344 (TRAH MIcro)
   18     dE    -5.134757e-03     1.738991e-03    -3.0496e-02      0.344 (TRAH MIcro)
 ---------------------------------
          TRAH Step control 
 ---------------------------------
  predicted energy change = -0.005135
  actual energy  change   = 0.004603
  energy change ratio     = -0.896395
  old trust radius        = 0.344129
  new trust radius        = 0.240890
  reject step?            =  1
   19       -476.236217594025     1.912718e-01                     0.241 (TRAH MAcro)  Yes
   20       -476.236217594024     3.394462e-02                     0.241 (TRAH MAcro)   No
WARNING : small    HOMO - LUMO gap : 0.003251
   20     dE    -1.138858e-04     6.035042e-02    -2.2776e-04      0.007 (TRAH MIcro)
   20     dE    -5.790533e-04     1.403267e-01    -1.1526e-03      0.069 (TRAH MIcro)
   20     dE    -3.067488e-03     1.166014e-01    -2.3587e-02      0.241 (TRAH MIcro)
   20     dE    -3.901149e-03     1.965643e-02    -5.2751e-02      0.241 (TRAH MIcro)
   20     dE    -3.918979e-03     9.438050e-03    -5.3450e-02      0.241 (TRAH MIcro)
   20     dE    -3.925317e-03     2.952796e-03    -5.3653e-02      0.241 (TRAH MIcro)
   21       -476.238035116220     1.387901e-01                     0.241 (TRAH MAcro)   No
   21     dE    -1.209271e-03     1.980387e-01    -2.4178e-03      0.018 (TRAH MIcro)
   21     dE    -2.076981e-03     6.125595e-02    -4.1473e-03      0.040 (TRAH MIcro)
   21     dE    -2.497521e-03     2.822071e-02    -4.9789e-03      0.057 (TRAH MIcro)
   21     dE    -2.627690e-03     6.814005e-03    -5.2260e-03      0.075 (TRAH MIcro)
   22       -476.240990377911     1.891029e-02                     0.289 (TRAH MAcro)   No
WARNING : small    HOMO - LUMO gap : 0.005960
   22     dE    -2.024968e-05     4.948698e-02    -4.0499e-05      0.002 (TRAH MIcro)
   22     dE    -4.885570e-05     2.510155e-02    -9.7707e-05      0.007 (TRAH MIcro)
   22     dE    -4.240061e-04     5.303898e-02    -8.4299e-04      0.077 (TRAH MIcro)
   22     dE    -5.901460e-04     9.627793e-03    -1.1657e-03      0.112 (TRAH MIcro)
   22     dE    -5.942005e-04     3.128326e-03    -1.1734e-03      0.113 (TRAH MIcro)
   22     dE    -5.946883e-04     1.523943e-03    -1.1743e-03      0.113 (TRAH MIcro)
   23       -476.241550780466     3.133808e-02                     0.347 (TRAH MAcro)   No
WARNING : small    HOMO - LUMO gap : 0.009715
   23     dE    -6.578396e-05     4.042483e-02    -1.3157e-04      0.004 (TRAH MIcro)
   23     dE    -1.148323e-04     1.452612e-02    -2.2964e-04      0.010 (TRAH MIcro)
   23     dE    -1.320526e-04     4.589426e-03    -2.6406e-04      0.013 (TRAH MIcro)
   23     dE    -1.370826e-04     3.694670e-03    -2.7408e-04      0.017 (TRAH MIcro)
   23     dE    -1.379134e-04     1.198580e-03    -2.7573e-04      0.018 (TRAH MIcro)
   24       -476.241694139689     1.683180e-03                     0.416 (TRAH MAcro)   No
WARNING : small    HOMO - LUMO gap : 0.003998
   24     dE    -8.401399e-08     3.497730e-03    -1.6803e-07      0.000 (TRAH MIcro)
   24     dE    -2.089153e-07     2.334225e-03    -4.1783e-07      0.000 (TRAH MIcro)
   24     dE    -1.753526e-06     3.879944e-03    -3.5070e-06      0.005 (TRAH MIcro)
   24     dE    -2.644226e-06     9.457765e-04    -5.2881e-06      0.008 (TRAH MIcro)
   24     dE    -2.684537e-06     4.651414e-04    -5.3687e-06      0.008 (TRAH MIcro)
   24     dE    -2.693030e-06     1.297813e-04    -5.3857e-06      0.008 (TRAH MIcro)
   25       -476.241696868425     2.120003e-04                           (NR   MAcro)
WARNING : small    HOMO - LUMO gap : 0.003821
   25     dE    -2.996338e-09     1.675323e-04                           (NR   MIcro)
   25     dE    -5.173204e-09     7.246820e-05                           (NR   MIcro)
   25     dE    -5.682787e-09     4.872434e-05                           (NR   MIcro)
   25     dE    -5.870633e-09     2.153869e-05                           (NR   MIcro)
   25     dE    -5.913412e-09     1.335369e-05                           (NR   MIcro)
   25     dE    -5.926232e-09     4.245553e-06                           (NR   MIcro)
   25     dE    -5.927538e-09     1.841161e-06                           (NR   MIcro)
   25     dE    -5.927852e-09     5.812495e-07                           (NR   MIcro)
   26       -476.241696874489     7.008428e-07                           (NR   MAcro)
WARNING : small    HOMO - LUMO gap : 0.003789

               *****************************************************
               *                     SUCCESS                       *
               *           SCF CONVERGED AFTER 189 CYCLES          *
               *****************************************************

Old exchange energy                            =    -12.301392617 Eh
New exchange energy                            =    -12.301372885 Eh
Exchange energy change after final integration =      0.000019732 Eh
Total energy after final integration           =   -476.241677143 Eh
Final COS-X integration done in                =   167.783 sec

----------------
TOTAL SCF ENERGY
----------------

Total Energy       :         -476.24167714 Eh          -12959.19487 eV

Components:
Nuclear Repulsion  :          355.60871048 Eh            9676.60496 eV
Electronic Energy  :         -831.85038762 Eh          -22635.79983 eV
One Electron Energy:        -1338.92913932 Eh          -36434.11416 eV
Two Electron Energy:          507.07875170 Eh           13798.31433 eV
Max COSX asymmetry :            0.00000108 Eh               0.00003 eV

Virial components:
Potential Energy   :         -950.22668973 Eh          -25856.98277 eV
Kinetic Energy     :          473.98501258 Eh           12897.78790 eV
Virial Ratio       :            2.00476105


DFT components:
N(Alpha)           :       35.999997202328 electrons
N(Beta)            :       35.999997202328 electrons
N(Total)           :       71.999994404657 electrons
E(X)               :      -49.103108019564 Eh       
E(C)               :       -2.884171344176 Eh       
E(XC)              :      -51.987279363740 Eh       
DFET-embed. en.    :        0.000000000000 Eh       

---------------
SCF CONVERGENCE
---------------

  Last Energy change         ...   -6.0642e-09  Tolerance :   1.0000e-08
  Last Orbital Gradient      ...    7.0084e-07  Tolerance :   1.0000e-05
  Last Orbital Rotation      ...    1.5511e-04

             **** THE GBW FILE WAS UPDATED (e_c_13_5.gbw) ****
             **** DENSITY e_c_13_5.scfp WAS UPDATED ****
             **** ENERGY FILE WAS UPDATED (e_c_13_5.en.tmp) ****
             **** THE GBW FILE WAS UPDATED (e_c_13_5.gbw) ****
             **** DENSITY e_c_13_5.scfp WAS UPDATED ****
----------------
ORBITAL ENERGIES
----------------

  NO   OCC          E(Eh)            E(eV) 
   0   2.0000     -19.457176      -529.4567 
   1   2.0000     -19.456429      -529.4364 
   2   2.0000     -14.775732      -402.0681 
   3   2.0000     -10.315526      -280.6997 
   4   2.0000     -10.302462      -280.3442 
   5   2.0000     -10.290114      -280.0082 
   6   2.0000     -10.289729      -279.9978 
   7   2.0000     -10.287725      -279.9432 
   8   2.0000     -10.287397      -279.9343 
   9   2.0000     -10.270424      -279.4724 
  10   2.0000      -1.500708       -40.8363 
  11   2.0000      -1.376419       -37.4543 
  12   2.0000      -0.968852       -26.3638 
  13   2.0000      -0.882414       -24.0117 
  14   2.0000      -0.857334       -23.3292 
  15   2.0000      -0.847789       -23.0695 
  16   2.0000      -0.789874       -21.4936 
  17   2.0000      -0.780589       -21.2409 
  18   2.0000      -0.776867       -21.1396 
  19   2.0000      -0.766567       -20.8594 
  20   2.0000      -0.713987       -19.4286 
  21   2.0000      -0.692711       -18.8496 
  22   2.0000      -0.618149       -16.8207 
  23   2.0000      -0.581887       -15.8340 
  24   2.0000      -0.577106       -15.7038 
  25   2.0000      -0.572732       -15.5848 
  26   2.0000      -0.560474       -15.2513 
  27   2.0000      -0.530771       -14.4430 
  28   2.0000      -0.521468       -14.1899 
  29   2.0000      -0.517162       -14.0727 
  30   2.0000      -0.487151       -13.2560 
  31   2.0000      -0.462748       -12.5920 
  32   2.0000      -0.455979       -12.4078 
  33   2.0000      -0.447837       -12.1863 
  34   2.0000      -0.367307        -9.9949 
  35   2.0000      -0.343750        -9.3539 
  36   0.0000      -0.339961        -9.2508 
  37   0.0000      -0.259462        -7.0603 
  38   0.0000      -0.126528        -3.4430 
  39   0.0000      -0.117822        -3.2061 
  40   0.0000      -0.055228        -1.5028 
  41   0.0000      -0.041064        -1.1174 
  42   0.0000      -0.026273        -0.7149 
  43   0.0000      -0.010050        -0.2735 
  44   0.0000       0.008152         0.2218 
  45   0.0000       0.011778         0.3205 
  46   0.0000       0.021311         0.5799 
  47   0.0000       0.028573         0.7775 
  48   0.0000       0.046254         1.2586 
  49   0.0000       0.058108         1.5812 
  50   0.0000       0.061168         1.6645 
  51   0.0000       0.071233         1.9384 
  52   0.0000       0.096242         2.6189 
  53   0.0000       0.099224         2.7000 
  54   0.0000       0.101454         2.7607 
  55   0.0000       0.101927         2.7736 
  56   0.0000       0.132577         3.6076 
  57   0.0000       0.133847         3.6422 
  58   0.0000       0.135902         3.6981 
  59   0.0000       0.138736         3.7752 
  60   0.0000       0.141779         3.8580 
  61   0.0000       0.144331         3.9274 
  62   0.0000       0.159461         4.3392 
  63   0.0000       0.162936         4.4337 
  64   0.0000       0.174257         4.7418 
  65   0.0000       0.197461         5.3732 
  66   0.0000       0.198294         5.3958 
  67   0.0000       0.215469         5.8632 
  68   0.0000       0.226564         6.1651 
  69   0.0000       0.239638         6.5209 
  70   0.0000       0.253013         6.8848 
  71   0.0000       0.254812         6.9338 
  72   0.0000       0.255566         6.9543 
  73   0.0000       0.256744         6.9864 
  74   0.0000       0.259029         7.0485 
  75   0.0000       0.276409         7.5215 
  76   0.0000       0.299021         8.1368 
  77   0.0000       0.311823         8.4851 
  78   0.0000       0.318219         8.6592 
  79   0.0000       0.327276         8.9056 
  80   0.0000       0.329611         8.9692 
  81   0.0000       0.334609         9.1052 
  82   0.0000       0.338947         9.2232 
  83   0.0000       0.352225         9.5845 
  84   0.0000       0.360711         9.8154 
  85   0.0000       0.369989        10.0679 
  86   0.0000       0.370466        10.0809 
  87   0.0000       0.376935        10.2569 
  88   0.0000       0.385992        10.5034 
  89   0.0000       0.390211        10.6182 
  90   0.0000       0.391588        10.6556 
  91   0.0000       0.396275        10.7832 
  92   0.0000       0.415703        11.3119 
  93   0.0000       0.425234        11.5712 
  94   0.0000       0.450053        12.2466 
  95   0.0000       0.455272        12.3886 
  96   0.0000       0.464217        12.6320 
  97   0.0000       0.516998        14.0682 
  98   0.0000       0.533457        14.5161 
  99   0.0000       0.549527        14.9534 
 100   0.0000       0.557740        15.1769 
 101   0.0000       0.571364        15.5476 
 102   0.0000       0.590757        16.0753 
 103   0.0000       0.606515        16.5041 
 104   0.0000       0.614640        16.7252 
 105   0.0000       0.634672        17.2703 
 106   0.0000       0.659772        17.9533 
 107   0.0000       0.679306        18.4849 
 108   0.0000       0.699317        19.0294 
 109   0.0000       0.704101        19.1596 
 110   0.0000       0.708597        19.2819 
 111   0.0000       0.727987        19.8095 
 112   0.0000       0.732472        19.9316 
 113   0.0000       0.733717        19.9654 
 114   0.0000       0.747563        20.3422 
 115   0.0000       0.772588        21.0232 
 116   0.0000       0.796639        21.6777 
 117   0.0000       0.826147        22.4806 
 118   0.0000       0.829205        22.5638 
 119   0.0000       0.858635        23.3646 
 120   0.0000       0.895122        24.3575 
 121   0.0000       0.895659        24.3721 
 122   0.0000       0.909988        24.7620 
 123   0.0000       0.922868        25.1125 
 124   0.0000       0.951615        25.8948 
 125   0.0000       0.978377        26.6230 
 126   0.0000       0.991776        26.9876 
 127   0.0000       1.013083        27.5674 
 128   0.0000       1.025802        27.9135 
 129   0.0000       1.075735        29.2722 
 130   0.0000       1.090887        29.6845 
 131   0.0000       1.097948        29.8767 
 132   0.0000       1.103801        30.0359 
 133   0.0000       1.119965        30.4758 
 134   0.0000       1.134650        30.8754 
 135   0.0000       1.135765        30.9057 
 136   0.0000       1.148277        31.2462 
 137   0.0000       1.178458        32.0675 
 138   0.0000       1.193999        32.4904 
 139   0.0000       1.203438        32.7472 
 140   0.0000       1.229572        33.4584 
 141   0.0000       1.242291        33.8045 
 142   0.0000       1.269455        34.5436 
 143   0.0000       1.294450        35.2238 
 144   0.0000       1.330403        36.2021 
 145   0.0000       1.333674        36.2911 
 146   0.0000       1.352546        36.8047 
 147   0.0000       1.358370        36.9631 
 148   0.0000       1.368167        37.2297 
 149   0.0000       1.391332        37.8601 
 150   0.0000       1.425746        38.7965 
 151   0.0000       1.435611        39.0650 
 152   0.0000       1.439070        39.1591 
 153   0.0000       1.444135        39.2969 
 154   0.0000       1.445606        39.3369 
 155   0.0000       1.460105        39.7315 
 156   0.0000       1.463819        39.8326 
 157   0.0000       1.494287        40.6616 
 158   0.0000       1.507724        41.0272 
 159   0.0000       1.532165        41.6923 
 160   0.0000       1.547643        42.1135 
 161   0.0000       1.558963        42.4215 
 162   0.0000       1.577915        42.9372 
 163   0.0000       1.584818        43.1251 
 164   0.0000       1.598399        43.4946 
 165   0.0000       1.616986        44.0004 
 166   0.0000       1.626354        44.2553 
 167   0.0000       1.640207        44.6323 
 168   0.0000       1.642958        44.7072 
 169   0.0000       1.729281        47.0561 
 170   0.0000       1.738236        47.2998 
 171   0.0000       1.745745        47.5041 
 172   0.0000       1.786096        48.6021 
 173   0.0000       1.796639        48.8890 
 174   0.0000       1.834439        49.9176 
 175   0.0000       1.843761        50.1713 
 176   0.0000       1.860351        50.6227 
 177   0.0000       1.882183        51.2168 
 178   0.0000       1.896407        51.6038 
 179   0.0000       1.929753        52.5113 
 180   0.0000       1.943985        52.8985 
 181   0.0000       1.951906        53.1141 
 182   0.0000       1.961675        53.3799 
 183   0.0000       1.961862        53.3850 
 184   0.0000       1.973670        53.7063 
 185   0.0000       1.989221        54.1295 
 186   0.0000       2.012582        54.7651 
 187   0.0000       2.024649        55.0935 
 188   0.0000       2.037257        55.4366 
 189   0.0000       2.093055        56.9549 
 190   0.0000       2.110606        57.4325 
 191   0.0000       2.123533        57.7843 
 192   0.0000       2.141145        58.2635 
 193   0.0000       2.162725        58.8507 
 194   0.0000       2.189359        59.5755 
 195   0.0000       2.199149        59.8419 
 196   0.0000       2.226905        60.5972 
 197   0.0000       2.249570        61.2139 
 198   0.0000       2.289874        62.3106 
 199   0.0000       2.347715        63.8846 
 200   0.0000       2.368793        64.4581 
 201   0.0000       2.388342        64.9901 
 202   0.0000       2.396779        65.2197 
 203   0.0000       2.409646        65.5698 
 204   0.0000       2.417272        65.7773 
 205   0.0000       2.439016        66.3690 
 206   0.0000       2.454153        66.7809 
 207   0.0000       2.478936        67.4553 
 208   0.0000       2.481662        67.5295 
 209   0.0000       2.493246        67.8447 
 210   0.0000       2.525696        68.7277 
 211   0.0000       2.544675        69.2441 
 212   0.0000       2.557289        69.5874 
 213   0.0000       2.562609        69.7321 
 214   0.0000       2.577604        70.1402 
 215   0.0000       2.589565        70.4657 
 216   0.0000       2.617617        71.2290 
 217   0.0000       2.648813        72.0779 
 218   0.0000       2.657229        72.3069 
 219   0.0000       2.657985        72.3275 
 220   0.0000       2.660499        72.3959 
 221   0.0000       2.666858        72.5689 
 222   0.0000       2.671684        72.7002 
 223   0.0000       2.672166        72.7133 
 224   0.0000       2.701636        73.5152 
 225   0.0000       2.712277        73.8048 
 226   0.0000       2.718748        73.9809 
 227   0.0000       2.734657        74.4138 
 228   0.0000       2.779376        75.6307 
 229   0.0000       2.786268        75.8182 
 230   0.0000       2.812508        76.5322 
 231   0.0000       2.832136        77.0663 
 232   0.0000       2.865254        77.9675 
 233   0.0000       2.876309        78.2683 
 234   0.0000       2.881092        78.3985 
 235   0.0000       2.895043        78.7781 
 236   0.0000       2.916623        79.3653 
 237   0.0000       2.917161        79.3800 
 238   0.0000       2.981679        81.1356 
 239   0.0000       2.991585        81.4052 
 240   0.0000       2.992748        81.4368 
 241   0.0000       3.013385        81.9984 
 242   0.0000       3.027025        82.3695 
 243   0.0000       3.048879        82.9642 
 244   0.0000       3.059880        83.2636 
 245   0.0000       3.072980        83.6200 
 246   0.0000       3.104326        84.4730 
 247   0.0000       3.105033        84.4922 
 248   0.0000       3.116676        84.8091 
 249   0.0000       3.127267        85.0973 
 250   0.0000       3.157325        85.9152 
 251   0.0000       3.181512        86.5733 
 252   0.0000       3.191127        86.8350 
 253   0.0000       3.207263        87.2741 
 254   0.0000       3.226000        87.7839 
 255   0.0000       3.238820        88.1328 
 256   0.0000       3.256353        88.6099 
 257   0.0000       3.265184        88.8502 
 258   0.0000       3.279558        89.2413 
 259   0.0000       3.286454        89.4290 
 260   0.0000       3.349570        91.1464 
 261   0.0000       3.351403        91.1963 
 262   0.0000       3.368895        91.6723 
 263   0.0000       3.379061        91.9489 
 264   0.0000       3.425160        93.2033 
 265   0.0000       3.435118        93.4743 
 266   0.0000       3.479514        94.6824 
 267   0.0000       3.491884        95.0190 
 268   0.0000       3.501037        95.2681 
 269   0.0000       3.502685        95.3129 
 270   0.0000       3.534634        96.1823 
 271   0.0000       3.563895        96.9785 
 272   0.0000       3.575065        97.2825 
 273   0.0000       3.595344        97.8343 
 274   0.0000       3.615511        98.3830 
 275   0.0000       3.647270        99.2473 
 276   0.0000       3.662313        99.6566 
 277   0.0000       3.693393       100.5023 
 278   0.0000       3.738992       101.7432 
 279   0.0000       3.763948       102.4222 
 280   0.0000       3.781669       102.9044 
 281   0.0000       3.826162       104.1152 
 282   0.0000       3.828271       104.1726 
 283   0.0000       3.876698       105.4903 
 284   0.0000       3.920088       106.6710 
[...]
    29. A(C   1,C   2,H  11)          119.93 -0.000491    0.01    119.94   
    30. A(H  12,C   3,O  16)           29.29  0.000089   -0.37     28.92   
    31. A(C   2,C   3,O  16)           95.78 -0.000200    0.49     96.28   
    32. A(C   4,C   3,H  12)          120.35  0.000637   -0.02    120.33   
    33. A(C   4,C   3,O  16)          140.36  0.000621   -0.48    139.88   
    34. A(C   2,C   3,C   4)          120.00 -0.000482    0.01    120.01   
    35. A(C   2,C   3,H  12)          119.64 -0.000156    0.01    119.66   
    36. A(C   5,C   4,H  13)          120.38  0.000124   -0.00    120.38   
    37. A(C   3,C   4,H  13)          119.74 -0.000278    0.01    119.75   
    38. A(C   3,C   4,C   5)          119.88  0.000154   -0.00    119.87   
    39. A(C   4,C   5,H  14)          120.30  0.000138   -0.00    120.30   
    40. A(C   0,C   5,C   4)          120.81  0.000122    0.00    120.81   
    41. A(C   0,C   5,H  14)          118.88 -0.000260    0.00    118.89   
    42. A(H   8,C   6,H   9)          108.57  0.000211    0.01    108.59   
    43. A(H   7,C   6,H   9)          105.94  0.000204   -0.01    105.93   
    44. A(C   0,C   6,H   9)          110.30 -0.000008    0.02    110.32   
    45. A(H   7,C   6,H   8)          109.14  0.000408   -0.03    109.11   
    46. A(C   0,C   6,H   8)          112.21 -0.000036    0.01    112.22   
    47. A(C   0,C   6,H   7)          110.46 -0.000747   -0.00    110.46   
    48. A(C   2,H  11,O  16)          136.34  0.000035   -0.48    135.86   
    49. A(C   3,H  12,O  16)          149.50 -0.000105    0.39    149.89   
    50. A(O  16,N  15,O  17)          151.55  0.000332    0.00    151.55   
    51. A(H  11,O  16,N  15)          177.98 -0.000024    0.03    178.00   
    52. A(C   3,O  16,N  15)          174.23 -0.000015    0.02    174.26   
    53. A(H  11,O  16,H  12)            5.56  0.000011   -0.03      5.54   
    54. A(H  12,O  16,N  15)          173.54 -0.000023    0.04    173.58   
    55. D(C   2,C   1,C   0,C   6)    179.19 -0.000127    0.03    179.22   
    56. D(H  10,C   1,C   0,C   5)    179.81  0.000033    0.01    179.82   
    57. D(H  10,C   1,C   0,C   6)     -0.83 -0.000100    0.04     -0.80   
    58. D(C   2,C   1,C   0,C   5)     -0.17  0.000006    0.00     -0.16   
    59. D(C   3,C   2,C   1,H  10)    179.96 -0.000001   -0.01    179.95   
    60. D(H  11,C   2,C   1,C   0)    179.12 -0.000128    0.04    179.16   
    61. D(C   3,C   2,C   1,C   0)     -0.07  0.000026    0.00     -0.06   
    62. D(H  11,C   2,C   1,H  10)     -0.86 -0.000155    0.03     -0.83   
    63. D(O  16,C   3,C   2,H  11)    -16.71  0.000172   -0.10    -16.81   
    64. D(H  12,C   3,C   2,H  11)      1.30  0.000253   -0.03      1.27   
    65. D(H  12,C   3,C   2,C   1)   -179.51  0.000093    0.00   -179.51   
    66. D(C   4,C   3,C   2,C   1)      0.25 -0.000026   -0.01      0.24   
    67. D(C   4,C   3,C   2,H  11)   -178.93  0.000134   -0.04   -178.98   
    68. D(O  16,C   3,C   2,C   1)    162.47  0.000013   -0.06    162.41   
    69. D(C   5,C   4,C   3,C   2)     -0.20 -0.000009    0.00     -0.20   
    70. D(H  13,C   4,C   3,O  16)     28.49  0.000365   -0.25     28.24   
    71. D(H  13,C   4,C   3,H  12)     -0.18 -0.000108   -0.01     -0.19   
    72. D(H  13,C   4,C   3,C   2)   -179.94  0.000013    0.00   -179.94   
    73. D(C   5,C   4,C   3,O  16)   -151.77  0.000343   -0.25   -152.01   
    74. D(C   5,C   4,C   3,H  12)    179.57 -0.000131   -0.01    179.56   
    75. D(H  14,C   5,C   4,H  13)     -0.24  0.000003    0.00     -0.23   
    76. D(C   0,C   5,C   4,H  13)    179.70  0.000021    0.01    179.71   
    77. D(C   0,C   5,C   4,C   3)     -0.04  0.000044    0.01     -0.03   
    78. D(H  14,C   5,C   0,C   6)      0.80  0.000106   -0.03      0.77   
    79. D(C   4,C   5,C   0,C   6)   -179.14  0.000088   -0.03   -179.18   
    80. D(H  14,C   5,C   4,C   3)   -179.98  0.000026    0.00   -179.98   
    81. D(C   4,C   5,C   0,C   1)      0.22 -0.000042   -0.01      0.21   
    82. D(H  14,C   5,C   0,C   1)   -179.84 -0.000024   -0.01   -179.85   
    83. D(H   8,C   6,C   0,C   1)      4.85  0.000156   -0.44      4.41   
    84. D(H   7,C   6,C   0,C   5)    -53.77 -0.000013   -0.45    -54.22   
    85. D(H   7,C   6,C   0,C   1)    126.89  0.000121   -0.47    126.41   
    86. D(H   9,C   6,C   0,C   5)     63.01 -0.000217   -0.45     62.56   
    87. D(H   9,C   6,C   0,C   1)   -116.34 -0.000083   -0.48   -116.81   
    88. D(H   8,C   6,C   0,C   5)   -175.80  0.000022   -0.42   -176.22   
    89. D(O  16,H  11,C   2,C   3)     25.11 -0.000242   -0.13     24.98   
    90. D(O  16,H  11,C   2,C   1)   -154.07 -0.000088   -0.16   -154.24   
    91. D(O  16,H  12,C   3,C   4)    141.27  0.000035   -0.62    140.65   
    92. D(O  16,H  12,C   3,C   2)    -38.96 -0.000087   -0.63    -39.59   
    93. D(H  12,O  16,N  15,O  17)   -133.61 -0.000016    0.05   -133.55   
    94. D(C   3,O  16,N  15,O  17)   -142.87 -0.000121    0.09   -142.78   
    95. D(H  11,O  16,H  12,C   3)     32.74 -0.000107    0.54     33.29   
    96. D(N  15,O  16,H  12,C   3)   -129.84  0.000050    0.42   -129.42   
    97. D(H  12,O  16,H  11,C   2)    -22.46  0.000052    0.09    -22.37   
    98. D(N  15,O  16,H  11,C   2)     50.13  0.000100    0.06     50.19   
    99. D(N  15,O  16,C   3,H  12)     59.38  0.000154    0.38     59.76   
   100. D(H  11,O  16,N  15,O  17)    171.13  0.000092   -0.05    171.08   
   101. D(N  15,O  16,C   3,C   4)      1.57 -0.000376    0.03      1.60   
   102. D(N  15,O  16,C   3,C   2)   -153.94  0.000038   -0.16   -154.10   
    ----------------------------------------------------------------------------

Time needed for optimization step       :     2.29 sec

         *************************************************************
         *                GEOMETRY OPTIMIZATION CYCLE  93            *
         *************************************************************
---------------------------------
CARTESIAN COORDINATES (ANGSTROEM)
---------------------------------
  C     -5.732611    0.753015    4.289684
  C     -6.015116    1.558916    3.170108
  C     -5.704608    1.128016    1.897547
  C     -5.099443   -0.124913    1.707403
  C     -4.815117   -0.940956    2.811288
  C     -5.126532   -0.509854    4.080718
  C     -6.045557    1.210481    5.671161
  H     -6.654191    0.465238    6.192159
  H     -6.566748    2.165472    5.680191
  H     -5.124181    1.309604    6.257316
  H     -6.480878    2.524358    3.320522
  H     -5.938713    1.749782    1.045514
  H     -4.850793   -0.454142    0.704559
  H     -4.348129   -1.904713    2.660114
  H     -4.909665   -1.134231    4.938207
  N    -10.936054   -2.369903  -24.914503
  O    -10.694741   -2.165353  -23.804678
  O    -10.847704   -2.113107  -26.035758

----------------------------
CARTESIAN COORDINATES (A.U.)
----------------------------
  NO LB      ZA    FRAG     MASS         X           Y           Z
   0 C     6.0000    0    12.011  -10.833064    1.422992    8.106327
   1 C     6.0000    0    12.011  -11.366921    2.945924    5.990636
   2 C     6.0000    0    12.011  -10.780146    2.131641    3.585845
   3 C     6.0000    0    12.011   -9.636551   -0.236051    3.226524
   4 C     6.0000    0    12.011   -9.099252   -1.778150    5.312564
   5 C     6.0000    0    12.011   -9.687742   -0.963484    7.711439
   6 C     6.0000    0    12.011  -11.424448    2.287477   10.716940
   7 H     1.0000    0     1.008  -12.574598    0.879173   11.701484
   8 H     1.0000    0     1.008  -12.409355    4.092149   10.734006
   9 H     1.0000    0     1.008   -9.683299    2.474794   11.824613
  10 H     1.0000    0     1.008  -12.247085    4.770346    6.274877
  11 H     1.0000    0     1.008  -11.222541    3.306610    1.975734
  12 H     1.0000    0     1.008   -9.166670   -0.858204    1.331424
  13 H     1.0000    0     1.008   -8.216773   -3.599386    5.026887
  14 H     1.0000    0     1.008   -9.277922   -2.143386    9.331859
  15 N     7.0000    0    14.007  -20.666148   -4.478467  -47.081588
  16 O     8.0000    0    15.999  -20.210132   -4.091924  -44.984323
  17 O     8.0000    0    15.999  -20.499189   -3.993194  -49.200453

--------------------------------
INTERNAL COORDINATES (ANGSTROEM)
--------------------------------
 C      0   0   0     0.000000000000     0.00000000     0.00000000
 C      1   0   0     1.408096124123     0.00000000     0.00000000
 C      2   1   0     1.378949369996   120.64604261     0.00000000
 C      3   2   1     1.404354055840   120.05123069   359.93948280
 C      4   3   2     1.401902449721   120.00765209     0.24254718
 C      5   4   3     1.376328675747   119.87057148   359.80477303
 C      1   2   3     1.488519251508   121.32193649   179.21493773
 H      7   1   2     1.094193657663   110.45873769   126.41199197
 H      7   1   2     1.087993232987   112.22077222     4.41355136
 H      7   1   2     1.096511468469   110.31882123   243.18687437
 H      2   1   3     1.082422184380   119.09920391   179.98809767
 H      3   2   1     1.080444471479   119.94296139   179.16315312
 H      4   3   2     1.084395613525   119.66266550   180.48373743
 H      5   4   3     1.081553387295   119.74939968   180.05802575
 H      6   5   4     1.082666674703   120.30076426   180.02450008
 N     13   4   3    26.401456712605   150.06230401   319.97057613
 O     16  13   4     1.154029273862     6.14497271    50.96043838
 O     16  13   4     1.153673660558   155.40811010   107.02925941

---------------------------
INTERNAL COORDINATES (A.U.)
---------------------------
 C      0   0   0     0.000000000000     0.00000000     0.00000000
 C      1   0   0     2.660916044828     0.00000000     0.00000000
 C      2   1   0     2.605836661835   120.64604261     0.00000000
 C      3   2   1     2.653844560599   120.05123069   359.93948280
 C      4   3   2     2.649211696447   120.00765209     0.24254718
 C      5   4   3     2.600884267424   119.87057148   359.80477303
 C      1   2   3     2.812893730419   121.32193649   179.21493773
 H      7   1   2     2.067726350457   110.45873769   126.41199197
 H      7   1   2     2.056009245905   112.22077222     4.41355136
 H      7   1   2     2.072106378109   110.31882123   243.18687437
 H      2   1   3     2.045481489759   119.09920391   179.98809767
 H      3   2   1     2.041744154004   119.94296139   179.16315312
 H      4   3   2     2.049210730389   119.66266550   180.48373743
 H      5   4   3     2.043839701202   119.74939968   180.05802575
 H      6   5   4     2.045943509512   120.30076426   180.02450008
 N     13   4   3    49.891522723401   150.06230401   319.97057613
 O     16  13   4     2.180799278127     6.14497271    50.96043838
 O     16  13   4     2.180127266372   155.40811010   107.02925941

------------------------------------------------------------------------------
                   ___                                                        
                  /   \      - P O W E R E D   B Y -                         
                 /     \                                                     
                 |  |  |   _    _      __       _____    __    __             
                 |  |  |  | |  | |    /  \     |  _  \  |  |  /  |          
                  \  \/   | |  | |   /    \    | | | |  |  | /  /          
                 / \  \   | |__| |  /  /\  \   | |_| |  |  |/  /          
                |  |  |   |  __  | /  /__\  \  |    /   |      \           
                |  |  |   | |  | | |   __   |  |    \   |  |\   \          
                \     /   | |  | | |  |  |  |  | |\  \  |  | \   \       
                 \___/    |_|  |_| |__|  |__|  |_| \__\ |__|  \__/        
                                                                              
                      - O R C A' S   B I G   F R I E N D -                    
                                      &                                       
                       - I N T E G R A L  F E E D E R -                       
                                                                              
 v1 FN, 2020, v2 2021                                                         
------------------------------------------------------------------------------


Reading SHARK input file e_c_13_5.SHARKINP.tmp ... ok
----------------------
SHARK INTEGRAL PACKAGE
----------------------

Number of atoms                             ...     18
Number of basis functions                   ...    358
Number of shells                            ...    142
Maximum angular momentum                    ...      3
Integral batch strategy                     ... SHARK/LIBINT Hybrid
RI-J (if used) integral strategy            ... SPLIT-RIJ (Revised 2003 algorithm where possible)
Printlevel                                  ...      1
Contraction scheme used                     ... SEGMENTED contraction
Coulomb Range Separation                    ... NOT USED
Exchange Range Separation                   ... NOT USED
Finite Nucleus Model                        ... NOT USED
Auxiliary Coulomb fitting basis             ... AVAILABLE
   # of basis functions in Aux-J            ...    578
   # of shells in Aux-J                     ...    190
   Maximum angular momentum in Aux-J        ...      4
Auxiliary J/K fitting basis                 ... NOT available
Auxiliary Correlation fitting basis         ... NOT available
Auxiliary 'external' fitting basis          ... NOT available
Integral threshold                          ...     2.500000e-11
Primitive cut-off                           ...     2.500000e-12
Primitive pair pre-selection threshold      ...     2.500000e-12

Calculating pre-screening integrals         ... done (  0.3 sec) Dimension = 142
Organizing shell pair data                  ... done (  0.4 sec)
Shell pair information
Total number of shell pairs                 ...     10153
Shell pairs after pre-screening             ...      6193
Total number of primitive shell pairs       ...     31120
Primitive shell pairs kept                  ...     14669
          la=0 lb=0:   1710 shell pairs
          la=1 lb=0:   1739 shell pairs
          la=1 lb=1:    462 shell pairs
          la=2 lb=0:    885 shell pairs
          la=2 lb=1:    452 shell pairs
          la=2 lb=2:    125 shell pairs
          la=3 lb=0:    441 shell pairs
          la=3 lb=1:    229 shell pairs
          la=3 lb=2:    116 shell pairs
          la=3 lb=3:     34 shell pairs

Calculating one electron integrals          ... done (  0.2 sec)
Calculating RI/J V-Matrix + Cholesky decomp.... done (  0.1 sec)
Calculating Nuclear repulsion               ... done (  0.0 sec) ENN=    356.959183769558 Eh

SHARK setup successfully completed in   1.5 seconds

Maximum memory used throughout the entire GTOINT-calculation: 91.9 MB

Diagonalization of the overlap matrix:
Smallest eigenvalue                        ... 8.979e-06
Time for diagonalization                   ...    0.044 sec
Threshold for overlap eigenvalues          ... 1.000e-08
Number of eigenvalues below threshold      ... 0
Time for construction of square roots      ...    0.023 sec
Total time needed                          ...    0.068 sec

-------------------
DFT GRID GENERATION
-------------------

General Integration Accuracy     IntAcc      ... 4.388
Radial Grid Type                 RadialGrid  ... OptM3 with GC (2021)
Angular Grid (max. ang.)         AngularGrid ... 4 (Lebedev-302)
Angular grid pruning method      GridPruning ... 4 (adaptive)
Weight generation scheme         WeightScheme... Becke
Basis function cutoff            BFCut       ... 1.0000e-11
Integration weight cutoff        WCut        ... 1.0000e-14
Angular grids for H and He will be reduced by one unit
Partially contracted basis set               ... off
Rotationally invariant grid construction     ... off

Total number of grid points                  ...    86287
Total number of batches                      ...     1356
Average number of points per batch           ...       63
Average number of grid points per atom       ...     4794
Time for grid setup =    3.759 sec

--------------------
COSX GRID GENERATION
--------------------

GRIDX 1
-------
General Integration Accuracy     IntAcc      ... 3.816
Radial Grid Type                 RadialGrid  ... OptM3 with GC (2021)
Angular Grid (max. ang.)         AngularGrid ... 1 (Lebedev-50)
Angular grid pruning method      GridPruning ... 4 (adaptive)
Weight generation scheme         WeightScheme... Becke
Basis function cutoff            BFCut       ... 1.0000e-11
Integration weight cutoff        WCut        ... 1.0000e-14
Angular grids for H and He will be reduced by one unit
Partially contracted basis set               ... on
Rotationally invariant grid construction     ... off

Total number of grid points                  ...    11023
Total number of batches                      ...      179
Average number of points per batch           ...       61
Average number of grid points per atom       ...      612
UseSFitting                                  ... on

GRIDX 2
-------
General Integration Accuracy     IntAcc      ... 4.020
Radial Grid Type                 RadialGrid  ... OptM3 with GC (2021)
Angular Grid (max. ang.)         AngularGrid ... 2 (Lebedev-110)
Angular grid pruning method      GridPruning ... 4 (adaptive)
Weight generation scheme         WeightScheme... Becke
Basis function cutoff            BFCut       ... 1.0000e-11
Integration weight cutoff        WCut        ... 1.0000e-14
Angular grids for H and He will be reduced by one unit
Partially contracted basis set               ... on
Rotationally invariant grid construction     ... off

Total number of grid points                  ...    24403
Total number of batches                      ...      388
Average number of points per batch           ...       62
Average number of grid points per atom       ...     1356
UseSFitting                                  ... on

GRIDX 3
-------
General Integration Accuracy     IntAcc      ... 4.338
Radial Grid Type                 RadialGrid  ... OptM3 with GC (2021)
Angular Grid (max. ang.)         AngularGrid ... 3 (Lebedev-194)
Angular grid pruning method      GridPruning ... 4 (adaptive)
Weight generation scheme         WeightScheme... Becke
Basis function cutoff            BFCut       ... 1.0000e-11
Integration weight cutoff        WCut        ... 1.0000e-14
Angular grids for H and He will be reduced by one unit
Partially contracted basis set               ... on
Rotationally invariant grid construction     ... off

Total number of grid points                  ...    53757
Total number of batches                      ...      848
Average number of points per batch           ...       63
Average number of grid points per atom       ...     2987
UseSFitting                                  ... on

Time for X-Grid setup             =    4.411 sec

--------------
SCF ITERATIONS
--------------
ITER       Energy         Delta-E        Max-DP      RMS-DP      [F,P]     Damp
               ***  Starting incremental Fock matrix formation  ***
                      *** Initiating the SOSCF procedure ***
                      *** Re-Reading the Fockian *** 
                      *** Removing any level shift *** 
ITER      Energy       Delta-E        Grad      Rot      Max-DP    RMS-DP
  0   -476.24256550 -476.2425655047  0.001699  0.001699  0.001703  0.000033
               *** Restarting incremental Fock matrix formation ***
  1   -476.24271804  -0.0001525347  0.000349  0.000802  0.000677  0.000014
