
                                 *****************
                                 * O   R   C   A *
                                 *****************

                                            #,                                       
                                            ###                                      
                                            ####                                     
                                            #####                                    
                                            ######                                   
                                           ########,                                 
                                     ,,################,,,,,                         
                               ,,#################################,,                 
                          ,,##########################################,,             
                       ,#########################################, ''#####,          
                    ,#############################################,,   '####,        
                  ,##################################################,,,,####,       
                ,###########''''           ''''###############################       
              ,#####''   ,,,,##########,,,,          '''####'''          '####       
            ,##' ,,,,###########################,,,                        '##       
           ' ,,###''''                  '''############,,,                           
         ,,##''                                '''############,,,,        ,,,,,,###''
      ,#''                                            '''#######################'''  
     '                                                          ''''####''''         
             ,#######,   #######,   ,#######,      ##                                
            ,#'     '#,  ##    ##  ,#'     '#,    #''#        ######   ,####,        
            ##       ##  ##   ,#'  ##            #'  '#       #        #'  '#        
            ##       ##  #######   ##           ,######,      #####,   #    #        
            '#,     ,#'  ##    ##  '#,     ,#' ,#      #,         ##   #,  ,#        
             '#######'   ##     ##  '#######'  #'      '#     #####' # '####'        



                  #######################################################
                  #                        -***-                        #
                  #          Department of theory and spectroscopy      #
                  #    Directorship and core code : Frank Neese         #
                  #        Max Planck Institute fuer Kohlenforschung    #
                  #                Kaiser Wilhelm Platz 1               #
                  #                 D-45470 Muelheim/Ruhr               #
                  #                      Germany                        #
                  #                                                     #
                  #                  All rights reserved                #
                  #                        -***-                        #
                  #######################################################



                         Program Version 5.0.4 -  RELEASE  -

 With contributions from (in alphabetic order):
   Daniel Aravena         : Magnetic Suceptibility
   Michael Atanasov       : Ab Initio Ligand Field Theory (pilot matlab implementation)
   Alexander A. Auer      : GIAO ZORA, VPT2 properties, NMR spectrum
   Ute Becker             : Parallelization
   Giovanni Bistoni       : ED, misc. LED, open-shell LED, HFLD
   Martin Brehm           : Molecular dynamics
   Dmytro Bykov           : SCF Hessian
   Vijay G. Chilkuri      : MRCI spin determinant printing, contributions to CSF-ICE
   Dipayan Datta          : RHF DLPNO-CCSD density
   Achintya Kumar Dutta   : EOM-CC, STEOM-CC
   Dmitry Ganyushin       : Spin-Orbit,Spin-Spin,Magnetic field MRCI
   Miquel Garcia          : C-PCM and meta-GGA Hessian, CC/C-PCM, Gaussian charge scheme
   Yang Guo               : DLPNO-NEVPT2, F12-NEVPT2, CIM, IAO-localization
   Andreas Hansen         : Spin unrestricted coupled pair/coupled cluster methods
   Benjamin Helmich-Paris : MC-RPA, TRAH-SCF, COSX integrals
   Lee Huntington         : MR-EOM, pCC
   Robert Izsak           : Overlap fitted RIJCOSX, COSX-SCS-MP3, EOM
   Marcus Kettner         : VPT2
   Christian Kollmar      : KDIIS, OOCD, Brueckner-CCSD(T), CCSD density, CASPT2, CASPT2-K
   Simone Kossmann        : Meta GGA functionals, TD-DFT gradient, OOMP2, MP2 Hessian
   Martin Krupicka        : Initial AUTO-CI
   Lucas Lang             : DCDCAS
   Marvin Lechner         : AUTO-CI (C++ implementation), FIC-MRCC
   Dagmar Lenk            : GEPOL surface, SMD
   Dimitrios Liakos       : Extrapolation schemes; Compound Job, initial MDCI parallelization
   Dimitrios Manganas     : Further ROCIS development; embedding schemes
   Dimitrios Pantazis     : SARC Basis sets
   Anastasios Papadopoulos: AUTO-CI, single reference methods and gradients
   Taras Petrenko         : DFT Hessian,TD-DFT gradient, ASA, ECA, R-Raman, ABS, FL, XAS/XES, NRVS
   Peter Pinski           : DLPNO-MP2, DLPNO-MP2 Gradient
   Christoph Reimann      : Effective Core Potentials
   Marius Retegan         : Local ZFS, SOC
   Christoph Riplinger    : Optimizer, TS searches, QM/MM, DLPNO-CCSD(T), (RO)-DLPNO pert. Triples
   Tobias Risthaus        : Range-separated hybrids, TD-DFT gradient, RPA, STAB
   Michael Roemelt        : Original ROCIS implementation
   Masaaki Saitow         : Open-shell DLPNO-CCSD energy and density
   Barbara Sandhoefer     : DKH picture change effects
   Avijit Sen             : IP-ROCIS
   Kantharuban Sivalingam : CASSCF convergence, NEVPT2, FIC-MRCI
   Bernardo de Souza      : ESD, SOC TD-DFT
   Georgi Stoychev        : AutoAux, RI-MP2 NMR, DLPNO-MP2 response
   Willem Van den Heuvel  : Paramagnetic NMR
   Boris Wezisla          : Elementary symmetry handling
   Frank Wennmohs         : Technical directorship


 We gratefully acknowledge several colleagues who have allowed us to
 interface, adapt or use parts of their codes:
   Stefan Grimme, W. Hujo, H. Kruse, P. Pracht,  : VdW corrections, initial TS optimization,
                  C. Bannwarth, S. Ehlert          DFT functionals, gCP, sTDA/sTD-DF
   Ed Valeev, F. Pavosevic, A. Kumar             : LibInt (2-el integral package), F12 methods
   Garnet Chan, S. Sharma, J. Yang, R. Olivares  : DMRG
   Ulf Ekstrom                                   : XCFun DFT Library
   Mihaly Kallay                                 : mrcc  (arbitrary order and MRCC methods)
   Jiri Pittner, Ondrej Demel                    : Mk-CCSD
   Frank Weinhold                                : gennbo (NPA and NBO analysis)
   Christopher J. Cramer and Donald G. Truhlar   : smd solvation model
   Lars Goerigk                                  : TD-DFT with DH, B97 family of functionals
   V. Asgeirsson, H. Jonsson                     : NEB implementation
   FAccTs GmbH                                   : IRC, NEB, NEB-TS, DLPNO-Multilevel, CI-OPT
                                                   MM, QMMM, 2- and 3-layer-ONIOM, Crystal-QMMM,
                                                   LR-CPCM, SF, NACMEs, symmetry and pop. for TD-DFT,
                                                   nearIR, NL-DFT gradient (VV10), updates on ESD,
                                                   ML-optimized integration grids
   S Lehtola, MJT Oliveira, MAL Marques          : LibXC Library
   Liviu Ungur et al                             : ANISO software


 Your calculation uses the libint2 library for the computation of 2-el integrals
 For citations please refer to: http://libint.valeyev.net

 Your ORCA version has been built with support for libXC version: 5.1.0
 For citations please refer to: https://tddft.org/programs/libxc/

 This ORCA versions uses:
   CBLAS   interface :  Fast vector & matrix operations
   LAPACKE interface :  Fast linear algebra routines
   Shared memory     :  Shared parallel matrices


Your calculation utilizes the atom-pairwise dispersion correction
based on tight binding partial charges (D4)
Cite in your paper:
E.Caldeweyher, C.Bannwarth, S.Grimme, J.Chem.Phys., (2017), 147, 034112.
E.Caldeweyher, S.Ehlert, A.Hansen, H.Neugebauer, S.Grimme, J.Chem.Phys., (2018), in progress.
   

================================================================================

----- Orbital basis set information -----
Your calculation utilizes the basis: def2-SVP
   F. Weigend and R. Ahlrichs, Phys. Chem. Chem. Phys. 7, 3297 (2005).

----- AuxJ basis set information -----
Your calculation utilizes the auxiliary basis: def2/J
   F. Weigend, Phys. Chem. Chem. Phys. 8, 1057 (2006).

================================================================================
                                        WARNINGS
                       Please study these warnings very carefully!
================================================================================


WARNING: Geometry Optimization
  ===> : Switching off AutoStart
         For restart on a previous wavefunction, please use MOREAD

INFO   : the flag for use of the SHARK integral package has been found!

================================================================================
                                       INPUT FILE
================================================================================
NAME = enducts_optfreq_6.inp
|  1> !B3LYP DEF2-SVP OPT FREQ D4 SOSCF
|  2> 
|  3> %geom
|  4> convergence tight
|  5> maxIter 1000
|  6> end
|  7> 
|  8> * xyz 1 1
|  9>   C   0.52090680871194      0.64635684178778      3.95375336548163
| 10>   C   -0.16088231409265      1.23259653783247      2.85008152369378
| 11>   C   -0.08632900086693      0.66019410483775      1.59315293504013
| 12>   C   0.67398896775458     -0.51869175606439      1.39870131344151
| 13>   C   1.35769779383823     -1.11676899872307      2.48105016045146
| 14>   C   1.28360660032146     -0.54518222654854      3.73668807490731
| 15>   C   0.44260113098650      1.23978361086548      5.31323782625552
| 16>   H   1.44867889383279      1.33897769661346      5.75981849360489
| 17>   H   -0.10817672329960      0.55706125397979      5.99177904239395
| 18>   H   -0.06123879643067      2.21512544185021      5.32338725404929
| 19>   H   -0.74347753852899      2.14276200739656      3.00920590339546
| 20>   H   -0.60974644155694      1.11208301268058      0.74792213435087
| 21>   H   0.73178394597467     -0.96854974179989      0.40430936885656
| 22>   H   1.94118056000124     -2.02555258214596      2.31955512827320
| 23>   H   1.80937447690331     -0.99749778623218      4.58127669036045
| 24>   N       -2.43265       -2.34708      -13.46786
| 25>   O       -1.99860       -1.21372      -13.28629
| 26>   O       -2.26219       -0.54127      -14.63769
| 27> **                         ****END OF INPUT****
================================================================================

                       *****************************
                       * Geometry Optimization Run *
                       *****************************

Geometry optimization settings:
Update method            Update   .... BFGS
Choice of coordinates    CoordSys .... Z-matrix Internals
Initial Hessian          InHess   .... Almoef's Model

Convergence Tolerances:
Energy Change            TolE     ....  1.0000e-06 Eh
Max. Gradient            TolMAXG  ....  1.0000e-04 Eh/bohr
RMS Gradient             TolRMSG  ....  3.0000e-05 Eh/bohr
Max. Displacement        TolMAXD  ....  1.0000e-03 bohr
RMS Displacement         TolRMSD  ....  6.0000e-04 bohr
Strict Convergence                ....  False
------------------------------------------------------------------------------
                        ORCA OPTIMIZATION COORDINATE SETUP
------------------------------------------------------------------------------

The optimization will be done in new redundant internal coordinates
Making redundant internal coordinates   ...  (new redundants) done
Evaluating the initial hessian          ...  (Almloef) done
Evaluating the coordinates              ...  done
Calculating the B-matrix                .... done
Calculating the G-matrix                .... done
Diagonalizing the G-matrix              .... done
Small eigenvalue found = 2.155e-02
The first mode is                       ....   44
The number of degrees of freedom        ....   48

    -----------------------------------------------------------------
                    Redundant Internal Coordinates


    -----------------------------------------------------------------
         Definition                    Initial Value    Approx d2E/dq
    -----------------------------------------------------------------
      1. B(C   1,C   0)                  1.4236         0.552268   
      2. B(C   2,C   1)                  1.3831         0.640746   
      3. B(C   3,C   2)                  1.4162         0.567431   
      4. B(C   4,C   3)                  1.4130         0.574126   
      5. B(C   5,C   4)                  1.3816         0.644370   
      6. B(C   5,C   0)                  1.4313         0.536861   
      7. B(C   6,C   0)                  1.4854         0.440043   
      8. B(H   7,C   6)                  1.1052         0.340544   
      9. B(H   8,C   6)                  1.1090         0.335821   
     10. B(H   9,C   6)                  1.0978         0.349879   
     11. B(H  10,C   1)                  1.0923         0.357058   
     12. B(H  11,C   2)                  1.0921         0.357391   
     13. B(H  12,C   3)                  1.0929         0.356226   
     14. B(H  13,C   4)                  1.0920         0.357490   
     15. B(H  14,C   5)                  1.0929         0.356331   
     16. B(N  15,H  12)                 14.2951         0.000000   
     17. B(N  15,H  11)                 14.7437         0.000000   
     18. B(O  16,H  12)                 13.9624         0.000000   
     19. B(O  16,H  11)                 14.2933         0.000000   
     20. B(O  16,C   3)                 14.9424         0.000000   
     21. B(O  16,N  15)                  1.2271         0.911686   
     22. B(O  17,O  16)                  1.5323         0.297152   
     23. A(C   1,C   0,C   5)          118.7151         0.414370   
     24. A(C   1,C   0,C   6)          121.3176         0.400050   
     25. A(C   5,C   0,C   6)          119.9650         0.398064   
     26. A(C   0,C   1,H  10)          119.0541         0.345595   
     27. A(C   0,C   1,C   2)          120.5503         0.427661   
     28. A(C   2,C   1,H  10)          120.3956         0.354372   
     29. A(C   3,C   2,H  11)          119.7027         0.347228   
     30. A(C   1,C   2,C   3)          119.8812         0.429744   
     31. A(C   1,C   2,H  11)          120.4160         0.354428   
     32. A(C   2,C   3,C   4)          120.4594         0.421382   
     33. A(C   2,C   3,O  16)           94.4526         0.089004   
     34. A(C   4,C   3,H  12)          119.8090         0.347723   
     35. A(H  12,C   3,O  16)           25.3321         0.089003   
     36. A(C   4,C   3,O  16)          145.0490         0.089004   
     37. A(C   2,C   3,H  12)          119.7316         0.347037   
     38. A(C   5,C   4,H  13)          120.4887         0.354784   
     39. A(C   3,C   4,H  13)          119.8357         0.347930   
     40. A(C   3,C   4,C   5)          119.6755         0.431086   
     41. A(C   4,C   5,H  14)          120.3535         0.354589   
     42. A(C   0,C   5,C   4)          120.7184         0.425929   
     43. A(C   0,C   5,H  14)          118.9281         0.343840   
     44. A(H   8,C   6,H   9)          108.2608         0.286385   
     45. A(H   7,C   6,H   9)          109.5302         0.287010   
     46. A(C   0,C   6,H   9)          112.8039         0.331618   
     47. A(H   7,C   6,H   8)          105.0773         0.285180   
     48. A(C   0,C   6,H   8)          109.8900         0.329376   
     49. A(C   0,C   6,H   7)          110.9579         0.330137   
     50. A(C   3,O  16,O  17)          151.2950         0.089004   
     51. A(C   3,O  16,N  15)          104.5744         0.089005   
     52. A(N  15,O  16,O  17)          102.3553         0.397326   
     53. D(H  10,C   1,C   0,C   5)   -179.9181         0.020871   
     54. D(C   2,C   1,C   0,C   5)     -0.0023         0.020871   
     55. D(C   2,C   1,C   0,C   6)   -179.4427         0.020871   
     56. D(H  10,C   1,C   0,C   6)      0.6414         0.020871   
     57. D(C   3,C   2,C   1,C   0)     -0.0194         0.028529   
     58. D(H  11,C   2,C   1,C   0)   -179.9642         0.028529   
     59. D(C   3,C   2,C   1,H  10)    179.8954         0.028529   
     60. D(H  11,C   2,C   1,H  10)     -0.0495         0.028529   
     61. D(O  16,C   3,C   2,H  11)      1.7198         0.023968   
     62. D(H  12,C   3,C   2,H  11)     -0.0126         0.023968   
     63. D(H  12,C   3,C   2,C   1)   -179.9579         0.023968   
     64. D(C   4,C   3,C   2,C   1)      0.0501         0.023968   
     65. D(C   4,C   3,C   2,H  11)    179.9953         0.023968   
     66. D(O  16,C   3,C   2,C   1)   -178.2254         0.023968   
     67. D(C   5,C   4,C   3,C   2)     -0.0588         0.024565   
     68. D(H  13,C   4,C   3,O  16)     -2.9878         0.024565   
     69. D(H  13,C   4,C   3,H  12)      0.0222         0.024565   
     70. D(H  13,C   4,C   3,C   2)   -179.9857         0.024565   
     71. D(C   5,C   4,C   3,O  16)    176.9391         0.024565   
     72. D(C   5,C   4,C   3,H  12)    179.9492         0.024565   
     73. D(H  14,C   5,C   4,H  13)      0.0298         0.028875   
     74. D(C   0,C   5,C   4,H  13)    179.9634         0.028875   
     75. D(C   0,C   5,C   4,C   3)      0.0369         0.028875   
     76. D(H  14,C   5,C   0,C   6)     -0.6239         0.019687   
     77. D(H  14,C   5,C   0,C   1)    179.9279         0.019687   
     78. D(H  14,C   5,C   4,C   3)   -179.8967         0.028875   
     79. D(C   4,C   5,C   0,C   6)    179.4416         0.019687   
     80. D(C   4,C   5,C   0,C   1)     -0.0066         0.019687   
     81. D(H   8,C   6,C   0,C   1)    112.9446         0.014288   
     82. D(H   7,C   6,C   0,C   5)     49.2834         0.014288   
     83. D(H   7,C   6,C   0,C   1)   -131.2831         0.014288   
     84. D(H   9,C   6,C   0,C   5)    172.6078         0.014288   
     85. D(H   9,C   6,C   0,C   1)     -7.9586         0.014288   
     86. D(H   8,C   6,C   0,C   5)    -66.4890         0.014288   
     87. D(O  17,O  16,C   3,H  12)   -151.1964         0.001500   
     88. D(O  17,O  16,C   3,C   4)   -145.0834         0.001500   
     89. D(O  17,O  16,C   3,C   2)     32.3213         0.001500   
     90. D(N  15,O  16,C   3,H  12)     49.5566         0.001500   
     91. D(N  15,O  16,C   3,C   4)     55.6697         0.001500   
     92. D(N  15,O  16,C   3,C   2)   -126.9256         0.001500   
    -----------------------------------------------------------------

Number of atoms                         .... 18
Number of degrees of freedom            .... 92

         *************************************************************
         *                GEOMETRY OPTIMIZATION CYCLE   1            *
         *************************************************************
---------------------------------
CARTESIAN COORDINATES (ANGSTROEM)
---------------------------------
  C      0.520907    0.646357    3.953753
  C     -0.160882    1.232597    2.850082
  C     -0.086329    0.660194    1.593153
  C      0.673989   -0.518692    1.398701
  C      1.357698   -1.116769    2.481050
  C      1.283607   -0.545182    3.736688
  C      0.442601    1.239784    5.313238
  H      1.448679    1.338978    5.759818
  H     -0.108177    0.557061    5.991779
  H     -0.061239    2.215125    5.323387
  H     -0.743478    2.142762    3.009206
  H     -0.609746    1.112083    0.747922
  H      0.731784   -0.968550    0.404309
  H      1.941181   -2.025553    2.319555
  H      1.809374   -0.997498    4.581277
  N     -2.432650   -2.347080  -13.467860
  O     -1.998600   -1.213720  -13.286290
  O     -2.262190   -0.541270  -14.637690

----------------------------
CARTESIAN COORDINATES (A.U.)
----------------------------
  NO LB      ZA    FRAG     MASS         X           Y           Z
   0 C     6.0000    0    12.011    0.984371    1.221437    7.471511
   1 C     6.0000    0    12.011   -0.304024    2.329270    5.385874
   2 C     6.0000    0    12.011   -0.163138    1.247586    3.010623
   3 C     6.0000    0    12.011    1.273655   -0.980185    2.643162
   4 C     6.0000    0    12.011    2.565677   -2.110388    4.688505
   5 C     6.0000    0    12.011    2.425665   -1.030245    7.061317
   6 C     6.0000    0    12.011    0.836395    2.342851   10.040564
   7 H     1.0000    0     1.008    2.737606    2.530301   10.884480
   8 H     1.0000    0     1.008   -0.204424    1.052693   11.322821
   9 H     1.0000    0     1.008   -0.115725    4.185980   10.059744
  10 H     1.0000    0     1.008   -1.404969    4.049233    5.686575
  11 H     1.0000    0     1.008   -1.152254    2.101532    1.413368
  12 H     1.0000    0     1.008    1.382871   -1.830294    0.764034
  13 H     1.0000    0     1.008    3.668300   -3.827740    4.383324
  14 H     1.0000    0     1.008    3.419222   -1.884998    8.657358
  15 N     7.0000    0    14.007   -4.597042   -4.435338  -25.450567
  16 O     8.0000    0    15.999   -3.776807   -2.293598  -25.107449
  17 O     8.0000    0    15.999   -4.274920   -1.022852  -27.661225

--------------------------------
INTERNAL COORDINATES (ANGSTROEM)
--------------------------------
 C      0   0   0     0.000000000000     0.00000000     0.00000000
 C      1   0   0     1.423588748041     0.00000000     0.00000000
 C      2   1   0     1.383138539260   120.55028553     0.00000000
 C      3   2   1     1.416215633153   119.88124839     0.00000000
 C      4   3   2     1.413022708124   120.45942334     0.05006677
 C      5   4   3     1.381603240913   119.67553359   359.94120569
 C      1   2   3     1.485424218366   121.31757111   180.55728970
 H      7   1   2     1.105199630832   110.95787913   228.71694290
 H      7   1   2     1.109001462290   109.88999495   112.94458031
 H      7   1   2     1.097838499331   112.80389290   352.04136314
 H      2   1   3     1.092308997371   119.05405377   180.08415464
 H      3   2   1     1.092055176575   120.41602557   180.03578048
 H      4   3   2     1.092944557740   119.73160800   180.04210144
 H      5   4   3     1.091980029729   119.83569445   180.01425220
 H      6   5   4     1.092863740331   120.35349383   180.10333588
 N     13   4   3    14.295141512747   155.62923285   355.22547679
 O     16  13   4     1.227139746321    71.88372835    57.13499888
 O     17  16  13     1.532302401812   102.35525249   188.53258686

---------------------------
INTERNAL COORDINATES (A.U.)
---------------------------
 C      0   0   0     0.000000000000     0.00000000     0.00000000
 C      1   0   0     2.690192861129     0.00000000     0.00000000
 C      2   1   0     2.613753044473   120.55028553     0.00000000
 C      3   2   1     2.676259693236   119.88124839     0.00000000
 C      4   3   2     2.670225939366   120.45942334     0.05006677
 C      5   4   3     2.610851751063   119.67553359   359.94120569
 C      1   2   3     2.807044965405   121.31757111   180.55728970
 H      7   1   2     2.088524625584   110.95787913   228.71694290
 H      7   1   2     2.095709045847   109.88999495   112.94458031
 H      7   1   2     2.074614103010   112.80389290   352.04136314
 H      2   1   3     2.064164858650   119.05405377   180.08415464
 H      3   2   1     2.063685206857   120.41602557   180.03578048
 H      4   3   2     2.065365893688   119.73160800   180.04210144
 H      5   4   3     2.063543199899   119.83569445   180.01425220
 H      6   5   4     2.065213170919   120.35349383   180.10333588
 N     13   4   3    27.013902504740   155.62923285   355.22547679
 O     16  13   4     2.318958048596    71.88372835    57.13499888
 O     17  16  13     2.895631893775   102.35525249   188.53258686

---------------------
BASIS SET INFORMATION
---------------------
There are 4 groups of distinct atoms

 Group   1 Type C   : 7s4p1d contracted to 3s2p1d pattern {511/31/1}
 Group   2 Type H   : 4s1p contracted to 2s1p pattern {31/1}
 Group   3 Type N   : 7s4p1d contracted to 3s2p1d pattern {511/31/1}
 Group   4 Type O   : 7s4p1d contracted to 3s2p1d pattern {511/31/1}

Atom   0C    basis set group =>   1
Atom   1C    basis set group =>   1
Atom   2C    basis set group =>   1
Atom   3C    basis set group =>   1
Atom   4C    basis set group =>   1
Atom   5C    basis set group =>   1
Atom   6C    basis set group =>   1
Atom   7H    basis set group =>   2
Atom   8H    basis set group =>   2
Atom   9H    basis set group =>   2
Atom  10H    basis set group =>   2
Atom  11H    basis set group =>   2
Atom  12H    basis set group =>   2
Atom  13H    basis set group =>   2
Atom  14H    basis set group =>   2
Atom  15N    basis set group =>   3
Atom  16O    basis set group =>   4
Atom  17O    basis set group =>   4
---------------------------------
AUXILIARY/J BASIS SET INFORMATION
---------------------------------
There are 4 groups of distinct atoms

 Group   1 Type C   : 12s5p4d2f1g contracted to 6s4p3d1f1g pattern {711111/2111/211/2/1}
 Group   2 Type H   : 5s2p1d contracted to 3s1p1d pattern {311/2/1}
 Group   3 Type N   : 12s5p4d2f1g contracted to 6s4p3d1f1g pattern {711111/2111/211/2/1}
 Group   4 Type O   : 12s5p4d2f1g contracted to 6s4p3d1f1g pattern {711111/2111/211/2/1}

Atom   0C    basis set group =>   1
Atom   1C    basis set group =>   1
Atom   2C    basis set group =>   1
Atom   3C    basis set group =>   1
Atom   4C    basis set group =>   1
Atom   5C    basis set group =>   1
Atom   6C    basis set group =>   1
Atom   7H    basis set group =>   2
Atom   8H    basis set group =>   2
Atom   9H    basis set group =>   2
Atom  10H    basis set group =>   2
Atom  11H    basis set group =>   2
Atom  12H    basis set group =>   2
Atom  13H    basis set group =>   2
Atom  14H    basis set group =>   2
Atom  15N    basis set group =>   3
Atom  16O    basis set group =>   4
Atom  17O    basis set group =>   4
------------------------------------------------------------------------------
                           ORCA GTO INTEGRAL CALCULATION
                           -- RI-GTO INTEGRALS CHOSEN --
------------------------------------------------------------------------------
------------------------------------------------------------------------------
                   ___                                                        
                  /   \      - P O W E R E D   B Y -                         
                 /     \                                                     
                 |  |  |   _    _      __       _____    __    __             
                 |  |  |  | |  | |    /  \     |  _  \  |  |  /  |          
                  \  \/   | |  | |   /    \    | | | |  |  | /  /          
                 / \  \   | |__| |  /  /\  \   | |_| |  |  |/  /          
                |  |  |   |  __  | /  /__\  \  |    /   |      \           
                |  |  |   | |  | | |   __   |  |    \   |  |\   \          
                \     /   | |  | | |  |  |  |  | |\  \  |  | \   \       
                 \___/    |_|  |_| |__|  |__|  |_| \__\ |__|  \__/        
                                                                              
                      - O R C A' S   B I G   F R I E N D -                    
                                      &                                       
                       - I N T E G R A L  F E E D E R -                       
                                                                              
 v1 FN, 2020, v2 2021                                                         
------------------------------------------------------------------------------


Reading SHARK input file enducts_optfreq_6.SHARKINP.tmp ... ok
----------------------
SHARK INTEGRAL PACKAGE
----------------------

Number of atoms                             ...     18
Number of basis functions                   ...    180
Number of shells                            ...     84
Maximum angular momentum                    ...      2
Integral batch strategy                     ... SHARK/LIBINT Hybrid
RI-J (if used) integral strategy            ... SPLIT-RIJ (Revised 2003 algorithm where possible)
Printlevel                                  ...      1
Contraction scheme used                     ... SEGMENTED contraction
Coulomb Range Separation                    ... NOT USED
Exchange Range Separation                   ... NOT USED
Finite Nucleus Model                        ... NOT USED
Auxiliary Coulomb fitting basis             ... AVAILABLE
   # of basis functions in Aux-J            ...    578
   # of shells in Aux-J                     ...    190
   Maximum angular momentum in Aux-J        ...      4
Auxiliary J/K fitting basis                 ... NOT available
Auxiliary Correlation fitting basis         ... NOT available
Auxiliary 'external' fitting basis          ... NOT available
Integral threshold                          ...     2.500000e-11
Primitive cut-off                           ...     2.500000e-12
Primitive pair pre-selection threshold      ...     2.500000e-12

Calculating pre-screening integrals         ... done (  0.1 sec) Dimension = 84
Organizing shell pair data                  ... done (  0.1 sec)
Shell pair information
Total number of shell pairs                 ...      3570
Shell pairs after pre-screening             ...      2297
Total number of primitive shell pairs       ...     13034
Primitive shell pairs kept                  ...      6348
          la=0 lb=0:    720 shell pairs
          la=1 lb=0:    834 shell pairs
          la=1 lb=1:    262 shell pairs
          la=2 lb=0:    279 shell pairs
          la=2 lb=1:    168 shell pairs
          la=2 lb=2:     34 shell pairs

Calculating one electron integrals          ... done (  0.0 sec)
Calculating RI/J V-Matrix + Cholesky decomp.... done (  0.1 sec)
Calculating Nuclear repulsion               ... done (  0.0 sec) ENN=    363.105271886063 Eh

SHARK setup successfully completed in   0.4 seconds

Maximum memory used throughout the entire GTOINT-calculation: 19.3 MB
-------------------------------------------------------------------------------
                                 ORCA SCF
-------------------------------------------------------------------------------

------------
SCF SETTINGS
------------
Hamiltonian:
 Density Functional     Method          .... DFT(GTOs)
 Exchange Functional    Exchange        .... B88
   X-Alpha parameter    XAlpha          ....  0.666667
   Becke's b parameter  XBeta           ....  0.004200
 Correlation Functional Correlation     .... LYP
 LDA part of GGA corr.  LDAOpt          .... VWN-5
 Gradients option       PostSCFGGA      .... off
 Hybrid DFT is turned on
   Fraction HF Exchange ScalHFX         ....  0.200000
   Scaling of DF-GGA-X  ScalDFX         ....  0.720000
   Scaling of DF-GGA-C  ScalDFC         ....  0.810000
   Scaling of DF-LDA-C  ScalLDAC        ....  1.000000
   Perturbative correction              ....  0.000000
   Density functional embedding theory  .... OFF
   NL short-range parameter             ....  4.800000
 RI-approximation to the Coulomb term is turned on
   Number of AuxJ basis functions       .... 578
   RIJ-COSX (HFX calculated with COS-X)).... on


General Settings:
 Integral files         IntName         .... enducts_optfreq_6
 Hartree-Fock type      HFTyp           .... RHF
 Total Charge           Charge          ....    1
 Multiplicity           Mult            ....    1
 Number of Electrons    NEL             ....   72
 Basis Dimension        Dim             ....  180
 Nuclear Repulsion      ENuc            ....    363.1052718861 Eh

Convergence Acceleration:
 DIIS                   CNVDIIS         .... on
   Start iteration      DIISMaxIt       ....    12
   Startup error        DIISStart       ....  0.200000
   # of expansion vecs  DIISMaxEq       ....     5
   Bias factor          DIISBfac        ....   1.050
   Max. coefficient     DIISMaxC        ....  10.000
 Trust-Rad. Augm. Hess. CNVTRAH         .... auto
   Auto Start mean grad. ratio tolernc. ....  1.125000
   Auto Start start iteration           ....    20
   Auto Start num. interpolation iter.  ....    10
   Max. Number of Micro iterations      ....    16
   Max. Number of Macro iterations      .... Maxiter - #DIIS iter
   Number of Davidson start vectors     ....     2
   Converg. threshold I  (grad. norm)   ....   1.000e-05
   Converg. threshold II (energy diff.) ....   1.000e-08
   Grad. Scal. Fac. for Micro threshold ....   0.100
   Minimum threshold for Micro iter.    ....   0.010
   NR start threshold (gradient norm)   ....   0.001
   Initial trust radius                 ....   0.400
   Minimum AH scaling param. (alpha)    ....   1.000
   Maximum AH scaling param. (alpha)    .... 1000.000
   Orbital update algorithm             .... Taylor
   White noise on init. David. guess    .... on
   Maximum white noise                  ....   0.010
   Quad. conv. algorithm                .... NR
 SOSCF                  CNVSOSCF        .... on
   Start iteration      SOSCFMaxIt      ....   150
   Startup grad/error   SOSCFStart      ....  0.003300
 Level Shifting         CNVShift        .... on
   Level shift para.    LevelShift      ....    0.2500
   Turn off err/grad.   ShiftErr        ....    0.0010
 Zerner damping         CNVZerner       .... off
 Static damping         CNVDamp         .... on
   Fraction old density DampFac         ....    0.7000
   Max. Damping (<1)    DampMax         ....    0.9800
   Min. Damping (>=0)   DampMin         ....    0.0000
   Turn off err/grad.   DampErr         ....    0.1000
 Fernandez-Rico         CNVRico         .... off

SCF Procedure:
 Maximum # iterations   MaxIter         ....   125
 SCF integral mode      SCFMode         .... Direct
   Integral package                     .... SHARK and LIBINT hybrid scheme
 Reset frequency        DirectResetFreq ....    20
 Integral Threshold     Thresh          ....  2.500e-11 Eh
 Primitive CutOff       TCut            ....  2.500e-12 Eh

Convergence Tolerance:
 Convergence Check Mode ConvCheckMode   .... Total+1el-Energy
 Convergence forced     ConvForced      .... 0
 Energy Change          TolE            ....  1.000e-08 Eh
 1-El. energy change                    ....  1.000e-05 Eh
 Orbital Gradient       TolG            ....  1.000e-05
 Orbital Rotation angle TolX            ....  1.000e-05
 DIIS Error             TolErr          ....  5.000e-07


Diagonalization of the overlap matrix:
Smallest eigenvalue                        ... 3.208e-04
Time for diagonalization                   ...    0.010 sec
Threshold for overlap eigenvalues          ... 1.000e-08
Number of eigenvalues below threshold      ... 0
Time for construction of square roots      ...    0.006 sec
Total time needed                          ...    0.016 sec

Time for model grid setup =    0.620 sec

------------------------------
INITIAL GUESS: MODEL POTENTIAL
------------------------------
Loading Hartree-Fock densities                     ... done
Calculating cut-offs                               ... done
Initializing the effective Hamiltonian             ... done
Setting up the integral package (SHARK)            ... done
Starting the Coulomb interaction                   ... done (   0.4 sec)
Reading the grid                                   ... done
Mapping shells                                     ... done
Starting the XC term evaluation                    ... done (   0.5 sec)
  promolecular density results
     # of electrons  =     72.996085797
     EX              =    -61.100022960
     EC              =     -2.456010516
     EX+EC           =    -63.556033476
Transforming the Hamiltonian                       ... done (   0.0 sec)
Diagonalizing the Hamiltonian                      ... done (   0.0 sec)
Back transforming the eigenvectors                 ... done (   0.0 sec)
Now organizing SCF variables                       ... done
                      ------------------
                      INITIAL GUESS DONE (   1.5 sec)
                      ------------------
-------------------
DFT GRID GENERATION
-------------------

General Integration Accuracy     IntAcc      ... 4.388
Radial Grid Type                 RadialGrid  ... OptM3 with GC (2021)
Angular Grid (max. ang.)         AngularGrid ... 4 (Lebedev-302)
Angular grid pruning method      GridPruning ... 4 (adaptive)
Weight generation scheme         WeightScheme... Becke
Basis function cutoff            BFCut       ... 1.0000e-11
Integration weight cutoff        WCut        ... 1.0000e-14
Angular grids for H and He will be reduced by one unit
Partially contracted basis set               ... off
Rotationally invariant grid construction     ... off

Total number of grid points                  ...    86377
Total number of batches                      ...     1358
Average number of points per batch           ...       63
Average number of grid points per atom       ...     4799
Time for grid setup =    3.192 sec

--------------------
COSX GRID GENERATION
--------------------

GRIDX 1
-------
General Integration Accuracy     IntAcc      ... 3.816
Radial Grid Type                 RadialGrid  ... OptM3 with GC (2021)
Angular Grid (max. ang.)         AngularGrid ... 1 (Lebedev-50)
Angular grid pruning method      GridPruning ... 4 (adaptive)
Weight generation scheme         WeightScheme... Becke
Basis function cutoff            BFCut       ... 1.0000e-11
Integration weight cutoff        WCut        ... 1.0000e-14
Angular grids for H and He will be reduced by one unit
Partially contracted basis set               ... on
Rotationally invariant grid construction     ... off

Total number of grid points                  ...    11055
Total number of batches                      ...      179
Average number of points per batch           ...       61
Average number of grid points per atom       ...      614
UseSFitting                                  ... on

GRIDX 2
-------
General Integration Accuracy     IntAcc      ... 4.020
Radial Grid Type                 RadialGrid  ... OptM3 with GC (2021)
Angular Grid (max. ang.)         AngularGrid ... 2 (Lebedev-110)
Angular grid pruning method      GridPruning ... 4 (adaptive)
Weight generation scheme         WeightScheme... Becke
Basis function cutoff            BFCut       ... 1.0000e-11
Integration weight cutoff        WCut        ... 1.0000e-14
Angular grids for H and He will be reduced by one unit
Partially contracted basis set               ... on
Rotationally invariant grid construction     ... off

Total number of grid points                  ...    24459
Total number of batches                      ...      391
Average number of points per batch           ...       62
Average number of grid points per atom       ...     1359
UseSFitting                                  ... on

GRIDX 3
-------
General Integration Accuracy     IntAcc      ... 4.338
Radial Grid Type                 RadialGrid  ... OptM3 with GC (2021)
Angular Grid (max. ang.)         AngularGrid ... 3 (Lebedev-194)
Angular grid pruning method      GridPruning ... 4 (adaptive)
Weight generation scheme         WeightScheme... Becke
Basis function cutoff            BFCut       ... 1.0000e-11
Integration weight cutoff        WCut        ... 1.0000e-14
Angular grids for H and He will be reduced by one unit
Partially contracted basis set               ... on
Rotationally invariant grid construction     ... off

Total number of grid points                  ...    53815
Total number of batches                      ...      850
Average number of points per batch           ...       63
Average number of grid points per atom       ...     2990
UseSFitting                                  ... on

Time for X-Grid setup             =    3.567 sec

--------------
SCF ITERATIONS
--------------
ITER       Energy         Delta-E        Max-DP      RMS-DP      [F,P]     Damp
               ***  Starting incremental Fock matrix formation  ***
  0   -474.9979010937   0.000000000000 0.34378235  0.00481812  0.3181759 0.7000
  1   -475.2154142156  -0.217513121910 0.07179450  0.00182387  0.0918650 0.7000
                               ***Turning on DIIS***
  2   -475.3544804901  -0.139066274513 0.16797758  0.00386558  0.0410532 0.0000
  3   -475.3505862551   0.003894235080 0.04511059  0.00086521  0.0949481 0.0000
  4   -475.3745375143  -0.023951259262 0.03797650  0.00068228  0.0708804 0.0000
  5   -475.3897777066  -0.015240192306 0.54618142  0.00840065  0.0641910 0.0000
  6   -474.8129629334   0.576814773273 0.00539337  0.00012168  0.2855813 0.7000
  7   -474.8250434611  -0.012080527772 0.00542078  0.00011171  0.2796799 0.7000
  8   -474.8271544410  -0.002110979884 0.00547474  0.00012629  0.2796071 0.7000
  9   -474.8345756929  -0.007421251859 0.00592149  0.00013118  0.2765738 0.7000
 10   -474.8430739497  -0.008498256795 0.25568329  0.00571589  0.2669764 0.7000
 11   -474.9790976032  -0.136023653516 0.16000300  0.00241060  0.1616708 0.7000
 12   -475.1001849807  -0.121087377523 0.32814748  0.00523109  0.0713520 0.0000
 13   -475.1454576217  -0.045272640977 0.00891116  0.00021457  0.2214593 0.7000
 14   -475.1682562518  -0.022798630090 0.01197314  0.00026248  0.2171498 0.7000
 15   -475.1946598033  -0.026403551571 0.19096442  0.00268690  0.2118105 0.7000
 16   -475.3579223600  -0.163262556642 0.14067746  0.00180926  0.2135585 0.7000
 17   -475.3589747515  -0.001052391553 0.22585384  0.00281603  0.2062624 0.7000
 18   -475.4114056134  -0.052430861888 0.48910455  0.00530708  0.0951456 0.0000
 19   -474.5868533101   0.824552303355 0.03304404  0.00051205  0.5785788 0.7000
               *** Restarting incremental Fock matrix formation ***
                                   *** Resetting DIIS ***

 WARNING: the maximum gradient error descreased on average only by a factor   0.9
          during the last 20 iterations

                      *** Initiating the TRAH-SCF procedure ***


TRAH GRIDX
----------

General Integration Accuracy     IntAcc      ... 3.067
Radial Grid Type                 RadialGrid  ... OptM3 with GC (2021)
Angular Grid (max. ang.)         AngularGrid ... 1 (Lebedev-50)
Angular grid pruning method      GridPruning ... 4 (adaptive)
Weight generation scheme         WeightScheme... Becke
Basis function cutoff            BFCut       ... 1.0000e-11
Integration weight cutoff        WCut        ... 1.0000e-14
Angular grids for H and He will be reduced by one unit
Partially contracted basis set               ... on
Rotationally invariant grid construction     ... off

Total number of grid points                  ...     5835
Total number of batches                      ...      101
Average number of points per batch           ...       57
Average number of grid points per atom       ...      324


TRAH GRID
---------

General Integration Accuracy     IntAcc      ... 3.467
Radial Grid Type                 RadialGrid  ... OptM3 with GC (2021)
Angular Grid (max. ang.)         AngularGrid ... 1 (Lebedev-50)
Angular grid pruning method      GridPruning ... 4 (adaptive)
Weight generation scheme         WeightScheme... Becke
Basis function cutoff            BFCut       ... 1.0000e-11
Integration weight cutoff        WCut        ... 1.0000e-14
Angular grids for H and He will be reduced by one unit
Partially contracted basis set               ... off
Rotationally invariant grid construction     ... off

Total number of grid points                  ...    12739
Total number of batches                      ...      206
Average number of points per batch           ...       61
Average number of grid points per atom       ...      708

 --------------------------------------------------------------------------------------------
   Iter.        energy            ||Error||_2        Shift      TRadius  Mac/Mic        Rej.
 --------------------------------------------------------------------------------------------
WARNING: 50 diagonal Hessian elements are negative!
    0       -474.978238111882     2.534802e+00                     0.400 (TRAH MAcro)   No
WARNING : negative HOMO - LUMO gap : -0.804883
    0     dE    -3.276193e-01     1.242540e+00    -6.1842e-01      0.244 (TRAH MIcro)
    0     dE    -5.072081e-01     4.104781e-01    -1.7393e+00      0.400 (TRAH MIcro)
    0     dE    -5.001286e-01     1.530224e-01    -2.5546e+00      0.368 (TRAH MIcro)
    0     dE    -5.093262e-01     6.941647e-02    -2.5592e+00      0.377 (TRAH MIcro)
    0     dE    -3.679227e-01     3.183650e-01    -4.4185e+00      0.227 (TRAH MIcro)
    0     dE    -3.669917e-01     5.813471e-02    -4.4402e+00      0.225 (TRAH MIcro)
    0     dE    -3.669369e-01     2.148306e-02    -4.4410e+00      0.225 (TRAH MIcro)
    0     dE    -3.669247e-01     2.666912e-03    -4.4412e+00      0.225 (TRAH MIcro)
WARNING: 37 diagonal Hessian elements are negative!
    1       -475.324619612982     7.681551e-01                     0.480 (TRAH MAcro)   No
WARNING : negative HOMO - LUMO gap : -0.456957
    1     dE    -3.874880e-02     4.089604e-01    -7.6732e-02      0.100 (TRAH MIcro)
    1     dE    -9.299831e-02     5.380046e-01    -1.8826e-01      0.480 (TRAH MIcro)
    1     dE    -1.092243e-01     1.680452e-01    -3.2093e-01      0.480 (TRAH MIcro)
    1     dE    -1.107981e-01     1.396652e-01    -3.2565e-01      0.478 (TRAH MIcro)
    1     dE    -1.788793e-01     1.354325e+00    -1.0965e+00      0.480 (TRAH MIcro)
    1     dE    -1.133742e-01     1.488505e-01    -1.8559e+00      0.284 (TRAH MIcro)
    1     dE    -7.965284e-02     8.103905e-02    -1.8852e+00      0.207 (TRAH MIcro)
    1     dE    -5.463028e-02     5.230346e-02    -1.9090e+00      0.125 (TRAH MIcro)
    1     dE    -5.418220e-02     1.093332e-02    -1.9151e+00      0.122 (TRAH MIcro)
    1     dE    -5.421374e-02     2.040793e-03    -1.9154e+00      0.122 (TRAH MIcro)
WARNING: 32 diagonal Hessian elements are negative!
    2       -475.378934996743     2.418842e-01                     0.576 (TRAH MAcro)   No
WARNING : negative HOMO - LUMO gap : -0.362297
    2     dE    -8.502783e-03     2.227566e-01    -1.6923e-02      0.070 (TRAH MIcro)
    2     dE    -2.209459e-02     2.269375e-01    -4.1928e-02      0.232 (TRAH MIcro)
    2     dE    -2.963743e-02     4.075868e-01    -5.2610e-02      0.356 (TRAH MIcro)
    2     dE    -1.334818e-02     4.067701e-02    -1.3414e+00      0.084 (TRAH MIcro)
    2     dE    -1.352888e-02     2.439189e-02    -1.3545e+00      0.084 (TRAH MIcro)
    2     dE    -1.568028e-02     6.011476e-02    -1.3657e+00      0.100 (TRAH MIcro)
    2     dE    -2.530390e-01     1.588546e-01    -1.4699e+00      0.576 (TRAH MIcro)
    2     dE    -2.543275e-01     3.529781e-02    -1.4780e+00      0.576 (TRAH MIcro)
    2     dE    -2.543972e-01     9.008567e-03    -1.4785e+00      0.576 (TRAH MIcro)
    3       -475.476438225892     7.347131e-01                     0.576 (TRAH MAcro)   No
    3     dE    -2.634191e-02     4.251102e-01    -5.2403e-02      0.073 (TRAH MIcro)
    3     dE    -3.082296e-02     3.952967e-01    -6.0847e-02      0.115 (TRAH MIcro)
    3     dE    -3.827043e-02     1.167022e-01    -7.4127e-02      0.180 (TRAH MIcro)
    3     dE    -3.937525e-02     7.019196e-02    -7.5786e-02      0.198 (TRAH MIcro)
    3     dE    -4.005718e-02     6.258469e-02    -7.6602e-02      0.214 (TRAH MIcro)
    3     dE    -4.052284e-02     3.395485e-02    -7.7005e-02      0.229 (TRAH MIcro)
    3     dE    -4.083062e-02     1.091049e-02    -7.7185e-02      0.241 (TRAH MIcro)
    3     dE    -4.090024e-02     6.306226e-03    -7.7214e-02      0.244 (TRAH MIcro)
    4       -475.515676918816     5.135830e-02                     0.691 (TRAH MAcro)   No
WARNING : small    HOMO - LUMO gap : 0.003440
    4     dE    -1.569881e-04     5.638485e-02    -3.1396e-04      0.006 (TRAH MIcro)
    4     dE    -1.718456e-04     5.049574e-02    -3.4367e-04      0.008 (TRAH MIcro)
    4     dE    -3.861120e-04     1.758630e-02    -7.7173e-04      0.025 (TRAH MIcro)
    4     dE    -4.043343e-04     7.923554e-03    -8.0806e-04      0.027 (TRAH MIcro)
    4     dE    -4.096082e-04     5.226543e-03    -8.1855e-04      0.029 (TRAH MIcro)
    4     dE    -4.114473e-04     2.854813e-03    -8.2219e-04      0.029 (TRAH MIcro)
    5       -475.516089808807     3.515835e-03                     0.829 (TRAH MAcro)   No
WARNING : small    HOMO - LUMO gap : 0.006185
    5     dE    -1.961965e-07     3.696525e-03    -3.9241e-07      0.000 (TRAH MIcro)
    5     dE    -4.288046e-07     3.049320e-03    -8.5761e-07      0.000 (TRAH MIcro)
    5     dE    -7.657523e-07     1.802424e-03    -1.5315e-06      0.001 (TRAH MIcro)
    5     dE    -1.384865e-06     1.942350e-03    -2.7697e-06      0.002 (TRAH MIcro)
    5     dE    -1.647272e-06     8.626031e-04    -3.2945e-06      0.003 (TRAH MIcro)
    5     dE    -1.709479e-06     3.215436e-04    -3.4189e-06      0.003 (TRAH MIcro)
    6       -475.516091515907     3.254132e-04                           (NR   MAcro)
WARNING : small    HOMO - LUMO gap : 0.006148
    6     dE    -9.774933e-09     1.662133e-04                           (NR   MIcro)
    6     dE    -1.136771e-08     1.732070e-04                           (NR   MIcro)
    6     dE    -1.386372e-08     1.463972e-04                           (NR   MIcro)
    6     dE    -1.582208e-08     6.387820e-05                           (NR   MIcro)
    6     dE    -1.616387e-08     3.037769e-05                           (NR   MIcro)
    6     dE    -1.636003e-08     1.915614e-05                           (NR   MIcro)
    6     dE    -1.639083e-08     7.217715e-06                           (NR   MIcro)
    6     dE    -1.639438e-08     3.026706e-06                           (NR   MIcro)
    6     dE    -1.639504e-08     1.209528e-06                           (NR   MIcro)
    6     dE    -1.639516e-08     5.295254e-07                           (NR   MIcro)
    7       -475.516091531644     6.875221e-07                           (NR   MAcro)
WARNING : small    HOMO - LUMO gap : 0.006148
    7     dE    -5.922632e-15     6.659024e-07                           (NR   MIcro)
    8       -475.516091531643     6.658599e-07                           (NR   MAcro)
WARNING : small    HOMO - LUMO gap : 0.006148

               *****************************************************
               *                     SUCCESS                       *
               *           SCF CONVERGED AFTER  87 CYCLES          *
               *****************************************************

Old exchange energy                            =    -12.221464590 Eh
New exchange energy                            =    -12.221496891 Eh
Exchange energy change after final integration =     -0.000032301 Eh
Total energy after final integration           =   -475.516123833 Eh
Final COS-X integration done in                =    19.800 sec

----------------
TOTAL SCF ENERGY
----------------

Total Energy       :         -475.51612383 Eh          -12939.45156 eV

Components:
Nuclear Repulsion  :          363.10527189 Eh            9880.59677 eV
Electronic Energy  :         -838.62139572 Eh          -22820.04833 eV
One Electron Energy:        -1352.70895224 Eh          -36809.08193 eV
Two Electron Energy:          514.08755652 Eh           13989.03360 eV
Max COSX asymmetry :            0.00000186 Eh               0.00005 eV

Virial components:
Potential Energy   :         -946.79377157 Eh          -25763.56832 eV
Kinetic Energy     :          471.27764774 Eh           12824.11676 eV
Virial Ratio       :            2.00899359


DFT components:
N(Alpha)           :       35.999992066968 electrons
N(Beta)            :       35.999992066968 electrons
N(Total)           :       71.999984133937 electrons
E(X)               :      -48.838389800158 Eh       
E(C)               :       -2.865929246901 Eh       
E(XC)              :      -51.704319047058 Eh       
DFET-embed. en.    :        0.000000000000 Eh       

---------------
SCF CONVERGENCE
---------------

  Last Energy change         ...    3.9790e-13  Tolerance :   1.0000e-08
  Last Orbital Gradient      ...    6.6586e-07  Tolerance :   1.0000e-05
  Last Orbital Rotation      ...    7.6629e-08

             **** THE GBW FILE WAS UPDATED (enducts_optfreq_6.gbw) ****
             **** DENSITY enducts_optfreq_6.scfp WAS UPDATED ****
             **** ENERGY FILE WAS UPDATED (enducts_optfreq_6.en.tmp) ****
             **** THE GBW FILE WAS UPDATED (enducts_optfreq_6.gbw) ****
             **** DENSITY enducts_optfreq_6.scfp WAS UPDATED ****
----------------
ORBITAL ENERGIES
----------------

  NO   OCC          E(Eh)            E(eV) 
   0   2.0000     -19.520944      -531.1919 
   1   2.0000     -19.354008      -526.6493 
   2   2.0000     -14.667892      -399.1336 
   3   2.0000     -10.373318      -282.2723 
   4   2.0000     -10.362112      -281.9674 
   5   2.0000     -10.345121      -281.5050 
   6   2.0000     -10.344006      -281.4747 
   7   2.0000     -10.342075      -281.4222 
   8   2.0000     -10.341372      -281.4031 
   9   2.0000     -10.322080      -280.8781 
  10   2.0000      -1.413920       -38.4747 
  11   2.0000      -1.073320       -29.2065 
  12   2.0000      -1.003631       -27.3102 
  13   2.0000      -0.916022       -24.9262 
  14   2.0000      -0.890879       -24.2421 
  15   2.0000      -0.855718       -23.2853 
  16   2.0000      -0.821884       -22.3646 
  17   2.0000      -0.748723       -20.3738 
  18   2.0000      -0.726989       -19.7824 
  19   2.0000      -0.692931       -18.8556 
  20   2.0000      -0.690988       -18.8027 
  21   2.0000      -0.655310       -17.8319 
  22   2.0000      -0.654477       -17.8092 
  23   2.0000      -0.614180       -16.7127 
  24   2.0000      -0.594097       -16.1662 
  25   2.0000      -0.570453       -15.5228 
  26   2.0000      -0.557666       -15.1749 
  27   2.0000      -0.556859       -15.1529 
  28   2.0000      -0.522892       -14.2286 
  29   2.0000      -0.500097       -13.6083 
  30   2.0000      -0.497007       -13.5242 
  31   2.0000      -0.486559       -13.2399 
  32   2.0000      -0.457569       -12.4511 
  33   2.0000      -0.447658       -12.1814 
  34   2.0000      -0.407560       -11.0903 
  35   2.0000      -0.380110       -10.3433 
  36   0.0000      -0.373962       -10.1760 
  37   0.0000      -0.305888        -8.3236 
  38   0.0000      -0.188711        -5.1351 
  39   0.0000      -0.164958        -4.4887 
  40   0.0000      -0.152282        -4.1438 
  41   0.0000      -0.058193        -1.5835 
  42   0.0000      -0.034558        -0.9404 
  43   0.0000      -0.024395        -0.6638 
  44   0.0000      -0.016910        -0.4601 
  45   0.0000       0.000776         0.0211 
  46   0.0000       0.015716         0.4276 
  47   0.0000       0.030417         0.8277 
  48   0.0000       0.039990         1.0882 
  49   0.0000       0.045988         1.2514 
  50   0.0000       0.091704         2.4954 
  51   0.0000       0.095141         2.5889 
  52   0.0000       0.144206         3.9241 
  53   0.0000       0.155274         4.2252 
  54   0.0000       0.156277         4.2525 
  55   0.0000       0.180389         4.9086 
  56   0.0000       0.216133         5.8813 
  57   0.0000       0.254697         6.9307 
  58   0.0000       0.277002         7.5376 
  59   0.0000       0.280737         7.6392 
  60   0.0000       0.294771         8.0211 
  61   0.0000       0.304579         8.2880 
  62   0.0000       0.314733         8.5643 
  63   0.0000       0.339368         9.2347 
  64   0.0000       0.347152         9.4465 
  65   0.0000       0.356834         9.7099 
  66   0.0000       0.372876        10.1465 
  67   0.0000       0.393184        10.6991 
  68   0.0000       0.399296        10.8654 
  69   0.0000       0.432594        11.7715 
  70   0.0000       0.455582        12.3970 
  71   0.0000       0.476738        12.9727 
  72   0.0000       0.493576        13.4309 
  73   0.0000       0.499859        13.6018 
  74   0.0000       0.503067        13.6892 
  75   0.0000       0.513715        13.9789 
  76   0.0000       0.525081        14.2882 
  77   0.0000       0.527918        14.3654 
  78   0.0000       0.536546        14.6002 
  79   0.0000       0.537159        14.6168 
  80   0.0000       0.543691        14.7946 
  81   0.0000       0.546285        14.8652 
  82   0.0000       0.555689        15.1211 
  83   0.0000       0.561971        15.2920 
  84   0.0000       0.585594        15.9348 
  85   0.0000       0.590718        16.0742 
  86   0.0000       0.597709        16.2645 
  87   0.0000       0.607104        16.5201 
  88   0.0000       0.644286        17.5319 
  89   0.0000       0.672068        18.2879 
  90   0.0000       0.672198        18.2915 
  91   0.0000       0.698315        19.0021 
  92   0.0000       0.728819        19.8322 
  93   0.0000       0.730432        19.8761 
  94   0.0000       0.770797        20.9745 
  95   0.0000       0.822787        22.3892 
  96   0.0000       0.848701        23.0943 
  97   0.0000       0.867093        23.5948 
  98   0.0000       0.908298        24.7160 
  99   0.0000       0.935353        25.4523 
 100   0.0000       0.943343        25.6697 
 101   0.0000       0.988398        26.8957 
 102   0.0000       1.055150        28.7121 
 103   0.0000       1.065555        28.9952 
 104   0.0000       1.092463        29.7274 
 105   0.0000       1.102385        29.9974 
 106   0.0000       1.128553        30.7095 
 107   0.0000       1.132078        30.8054 
 108   0.0000       1.135217        30.8908 
 109   0.0000       1.144282        31.1375 
 110   0.0000       1.157759        31.5042 
 111   0.0000       1.329523        36.1782 
 112   0.0000       1.368310        37.2336 
 113   0.0000       1.386441        37.7270 
 114   0.0000       1.410190        38.3732 
 115   0.0000       1.500605        40.8335 
 116   0.0000       1.534431        41.7540 
 117   0.0000       1.541511        41.9466 
 118   0.0000       1.575495        42.8714 
 119   0.0000       1.584478        43.1158 
 120   0.0000       1.597915        43.4815 
 121   0.0000       1.601641        43.5829 
 122   0.0000       1.620210        44.0881 
 123   0.0000       1.627251        44.2797 
 124   0.0000       1.635590        44.5067 
 125   0.0000       1.660921        45.1960 
 126   0.0000       1.668443        45.4006 
 127   0.0000       1.682969        45.7959 
 128   0.0000       1.685037        45.8522 
 129   0.0000       1.713878        46.6370 
 130   0.0000       1.719836        46.7991 
 131   0.0000       1.766999        48.0825 
 132   0.0000       1.802055        49.0364 
 133   0.0000       1.834748        49.9260 
 134   0.0000       1.838271        50.0219 
 135   0.0000       1.844754        50.1983 
 136   0.0000       1.879848        51.1533 
 137   0.0000       1.883945        51.2648 
 138   0.0000       1.898552        51.6622 
 139   0.0000       1.907351        51.9016 
 140   0.0000       1.967996        53.5519 
 141   0.0000       1.985991        54.0416 
 142   0.0000       1.991119        54.1811 
 143   0.0000       2.018382        54.9230 
 144   0.0000       2.082127        56.6576 
 145   0.0000       2.123564        57.7851 
 146   0.0000       2.139002        58.2052 
 147   0.0000       2.158048        58.7235 
 148   0.0000       2.169686        59.0402 
 149   0.0000       2.170942        59.0743 
 150   0.0000       2.197409        59.7945 
 151   0.0000       2.206326        60.0372 
 152   0.0000       2.301312        62.6219 
 153   0.0000       2.322579        63.2006 
 154   0.0000       2.337885        63.6171 
 155   0.0000       2.347630        63.8823 
 156   0.0000       2.432662        66.1961 
 157   0.0000       2.445206        66.5374 
 158   0.0000       2.458306        66.8939 
 159   0.0000       2.474605        67.3374 
 160   0.0000       2.478115        67.4330 
 161   0.0000       2.484472        67.6059 
 162   0.0000       2.522057        68.6287 
 163   0.0000       2.576852        70.1197 
 164   0.0000       2.579539        70.1928 
 165   0.0000       2.592804        70.5538 
 166   0.0000       2.688518        73.1583 
 167   0.0000       2.698938        73.4418 
 168   0.0000       2.714586        73.8677 
 169   0.0000       2.734207        74.4016 
 170   0.0000       2.792772        75.9952 
 171   0.0000       2.818414        76.6929 
 172   0.0000       2.897168        78.8359 
 173   0.0000       2.908325        79.1395 
 174   0.0000       2.973092        80.9019 
 175   0.0000       2.979958        81.0888 
 176   0.0000       3.094365        84.2020 
 177   0.0000       3.192508        86.8726 
 178   0.0000       3.448798        93.8466 
 179   0.0000       3.491080        94.9971 

                    ********************************
                    * MULLIKEN POPULATION ANALYSIS *
                    ********************************

-----------------------
MULLIKEN ATOMIC CHARGES
-----------------------
   0 C :   -0.038320
   1 C :    0.035534
   2 C :    0.047264
   3 C :    0.071383
   4 C :    0.043503
   5 C :    0.038174
   6 C :    0.062483
   7 H :    0.076405
   8 H :    0.086471
   9 H :    0.055254
  10 H :    0.029219
  11 H :    0.041602
  12 H :    0.052653
  13 H :    0.042565
  14 H :    0.030568
  15 N :    0.273174
  16 O :    0.128667
  17 O :   -0.076598
Sum of atomic charges:    1.0000000

--------------------------------
MULLIKEN REDUCED ORBITAL CHARGES
--------------------------------
  0 C s       :     3.125667  s :     3.125667
      pz      :     1.026339  p :     2.868383
      px      :     0.884828
      py      :     0.957216
      dz2     :     0.011214  d :     0.044270
      dxz     :     0.009059
      dyz     :     0.011369
      dx2y2   :     0.006552
      dxy     :     0.006076
  1 C s       :     3.211109  s :     3.211109
      pz      :     0.928302  p :     2.720126
      px      :     0.913970
      py      :     0.877853
      dz2     :     0.009771  d :     0.033231
      dxz     :     0.007196
      dyz     :     0.008916
      dx2y2   :     0.003078
      dxy     :     0.004271
  2 C s       :     3.176522  s :     3.176522
      pz      :     0.914195  p :     2.742047
      px      :     0.909536
      py      :     0.918316
      dz2     :     0.008710  d :     0.034167
      dxz     :     0.006770
      dyz     :     0.009362
      dx2y2   :     0.004258
      dxy     :     0.005067
  3 C s       :     3.195827  s :     3.195827
      pz      :     0.908874  p :     2.697987
      px      :     0.875399
      py      :     0.913714
      dz2     :     0.008703  d :     0.034803
      dxz     :     0.005539
      dyz     :     0.009110
      dx2y2   :     0.005954
      dxy     :     0.005497
  4 C s       :     3.172233  s :     3.172233
      pz      :     0.945263  p :     2.750142
      px      :     0.914189
      py      :     0.890690
      dz2     :     0.010069  d :     0.034123
      dxz     :     0.007309
      dyz     :     0.009076
      dx2y2   :     0.003272
      dxy     :     0.004397
  5 C s       :     3.219000  s :     3.219000
      pz      :     0.882372  p :     2.709632
      px      :     0.910367
      py      :     0.916893
      dz2     :     0.008651  d :     0.033194
      dxz     :     0.006698
      dyz     :     0.009000
      dx2y2   :     0.003908
      dxy     :     0.004937
  6 C s       :     2.963969  s :     2.963969
      pz      :     0.934027  p :     2.946983
      px      :     1.014836
      py      :     0.998120
      dz2     :     0.006470  d :     0.026565
      dxz     :     0.004713
      dyz     :     0.006059
      dx2y2   :     0.004644
      dxy     :     0.004678
  7 H s       :     0.899453  s :     0.899453
      pz      :     0.006131  p :     0.024143
      px      :     0.012999
      py      :     0.005013
  8 H s       :     0.888994  s :     0.888994
      pz      :     0.008489  p :     0.024535
      px      :     0.007882
      py      :     0.008164
  9 H s       :     0.921503  s :     0.921503
      pz      :     0.003812  p :     0.023242
      px      :     0.006623
      py      :     0.012807
 10 H s       :     0.947788  s :     0.947788
      pz      :     0.003366  p :     0.022993
      px      :     0.007403
      py      :     0.012225
 11 H s       :     0.935425  s :     0.935425
      pz      :     0.010793  p :     0.022973
      px      :     0.006617
      py      :     0.005563
 12 H s       :     0.924627  s :     0.924627
      pz      :     0.013818  p :     0.022719
      px      :     0.003462
      py      :     0.005440
 13 H s       :     0.934424  s :     0.934424
      pz      :     0.003411  p :     0.023011
      px      :     0.007362
      py      :     0.012238
 14 H s       :     0.946453  s :     0.946453
      pz      :     0.010589  p :     0.022979
      px      :     0.006731
      py      :     0.005659
 15 N s       :     3.900253  s :     3.900253
      pz      :     1.077089  p :     2.782815
      px      :     0.819988
      py      :     0.885738
      dz2     :     0.005214  d :     0.043759
      dxz     :     0.001492
      dyz     :     0.009737
      dx2y2   :     0.013620
      dxy     :     0.013696
 16 O s       :     3.852993  s :     3.852993
      pz      :     1.391260  p :     3.981737
      px      :     1.384805
      py      :     1.205672
      dz2     :     0.006399  d :     0.036603
      dxz     :     0.003390
      dyz     :     0.010641
      dx2y2   :     0.007847
      dxy     :     0.008326
 17 O s       :     3.977966  s :     3.977966
      pz      :     1.031508  p :     4.089738
      px      :     1.778418
      py      :     1.279811
      dz2     :     0.003520  d :     0.008894
      dxz     :     0.001316
      dyz     :     0.003152
      dx2y2   :     0.000473
      dxy     :     0.000433


                     *******************************
                     * LOEWDIN POPULATION ANALYSIS *
                     *******************************

----------------------
LOEWDIN ATOMIC CHARGES
----------------------
   0 C :    0.081559
   1 C :    0.014841
   2 C :    0.021996
   3 C :    0.093269
   4 C :    0.011618
   5 C :    0.028323
   6 C :   -0.029719
   7 H :    0.067356
   8 H :    0.076315
   9 H :    0.048388
  10 H :    0.049639
  11 H :    0.053074
  12 H :    0.054580
  13 H :    0.053434
  14 H :    0.050084
  15 N :    0.195915
  16 O :    0.237672
  17 O :   -0.108344

-------------------------------
LOEWDIN REDUCED ORBITAL CHARGES
-------------------------------
  0 C s       :     2.879929  s :     2.879929
      pz      :     1.057290  p :     2.933319
      px      :     0.889148
      py      :     0.986881
      dz2     :     0.027930  d :     0.105193
      dxz     :     0.020138
      dyz     :     0.027936
      dx2y2   :     0.013735
      dxy     :     0.015453
  1 C s       :     2.868595  s :     2.868595
      pz      :     1.049688  p :     3.029196
      px      :     0.966739
      py      :     1.012768
      dz2     :     0.028188  d :     0.087368
      dxz     :     0.018390
      dyz     :     0.024517
      dx2y2   :     0.006071
      dxy     :     0.010203
  2 C s       :     2.868205  s :     2.868205
      pz      :     1.058462  p :     3.021384
      px      :     0.955793
      py      :     1.007129
      dz2     :     0.024101  d :     0.088415
      dxz     :     0.016194
      dyz     :     0.025322
      dx2y2   :     0.009485
      dxy     :     0.013312
  3 C s       :     2.883710  s :     2.883710
      pz      :     1.050467  p :     2.936284
      px      :     0.898987
      py      :     0.986830
      dz2     :     0.022522  d :     0.086737
      dxz     :     0.013612
      dyz     :     0.023365
      dx2y2   :     0.012700
      dxy     :     0.014538
  4 C s       :     2.865862  s :     2.865862
      pz      :     1.056331  p :     3.033802
      px      :     0.965089
      py      :     1.012382
      dz2     :     0.028372  d :     0.088718
      dxz     :     0.018689
      dyz     :     0.024927
      dx2y2   :     0.006288
      dxy     :     0.010443
  5 C s       :     2.870969  s :     2.870969
      pz      :     1.057853  p :     3.013760
      px      :     0.955625
      py      :     1.000281
      dz2     :     0.023985  d :     0.086948
      dxz     :     0.016199
      dyz     :     0.024991
      dx2y2   :     0.008899
      dxy     :     0.012875
  6 C s       :     2.834323  s :     2.834323
      pz      :     1.007235  p :     3.125679
      px      :     1.061591
      py      :     1.056853
      dz2     :     0.017912  d :     0.069716
      dxz     :     0.012182
      dyz     :     0.016179
      dx2y2   :     0.011639
      dxy     :     0.011804
  7 H s       :     0.867188  s :     0.867188
      pz      :     0.016870  p :     0.065456
      px      :     0.036481
      py      :     0.012105
  8 H s       :     0.858369  s :     0.858369
      pz      :     0.023240  p :     0.065316
      px      :     0.019607
      py      :     0.022469
  9 H s       :     0.886081  s :     0.886081
      pz      :     0.010868  p :     0.065531
      px      :     0.018294
      py      :     0.036369
 10 H s       :     0.881855  s :     0.881855
      pz      :     0.010752  p :     0.068506
      px      :     0.022163
      py      :     0.035591
 11 H s       :     0.878766  s :     0.878766
      pz      :     0.031202  p :     0.068160
      px      :     0.019844
      py      :     0.017114
 12 H s       :     0.876863  s :     0.876863
      pz      :     0.040467  p :     0.068557
      px      :     0.011147
      py      :     0.016943
 13 H s       :     0.878417  s :     0.878417
      pz      :     0.010988  p :     0.068149
      px      :     0.021850
      py      :     0.035311
 14 H s       :     0.881449  s :     0.881449
      pz      :     0.030862  p :     0.068467
      px      :     0.020250
      py      :     0.017355
 15 N s       :     3.681304  s :     3.681304
      pz      :     1.085093  p :     3.040927
      px      :     0.863226
      py      :     1.092608
      dz2     :     0.011629  d :     0.081854
      dxz     :     0.002627
      dyz     :     0.015907
      dx2y2   :     0.026564
      dxy     :     0.025128
 16 O s       :     3.606864  s :     3.606864
      pz      :     1.391368  p :     4.092634
      px      :     1.378457
      py      :     1.322810
      dz2     :     0.010905  d :     0.062830
      dxz     :     0.004442
      dyz     :     0.018567
      dx2y2   :     0.014755
      dxy     :     0.014161
 17 O s       :     3.900371  s :     3.900371
      pz      :     1.116341  p :     4.193466
      px      :     1.784408
      py      :     1.292717
      dz2     :     0.005986  d :     0.014506
      dxz     :     0.001970
      dyz     :     0.005335
      dx2y2   :     0.000563
      dxy     :     0.000652


                      *****************************
                      * MAYER POPULATION ANALYSIS *
                      *****************************

  NA   - Mulliken gross atomic population
  ZA   - Total nuclear charge
  QA   - Mulliken gross atomic charge
  VA   - Mayer's total valence
  BVA  - Mayer's bonded valence
  FA   - Mayer's free valence

  ATOM       NA         ZA         QA         VA         BVA        FA
  0 C      6.0383     6.0000    -0.0383     3.9401     3.9401     0.0000
  1 C      5.9645     6.0000     0.0355     3.8490     3.8490     0.0000
  2 C      5.9527     6.0000     0.0473     3.8355     3.8355    -0.0000
  3 C      5.9286     6.0000     0.0714     3.8035     3.8035     0.0000
  4 C      5.9565     6.0000     0.0435     3.8406     3.8406    -0.0000
  5 C      5.9618     6.0000     0.0382     3.8410     3.8410    -0.0000
  6 C      5.9375     6.0000     0.0625     3.9116     3.9116    -0.0000
  7 H      0.9236     1.0000     0.0764     0.9904     0.9904    -0.0000
  8 H      0.9135     1.0000     0.0865     0.9886     0.9886    -0.0000
  9 H      0.9447     1.0000     0.0553     0.9972     0.9972     0.0000
 10 H      0.9708     1.0000     0.0292     0.9911     0.9911     0.0000
 11 H      0.9584     1.0000     0.0416     0.9819     0.9819    -0.0000
 12 H      0.9473     1.0000     0.0527     0.9801     0.9801     0.0000
 13 H      0.9574     1.0000     0.0426     0.9819     0.9819     0.0000
 14 H      0.9694     1.0000     0.0306     0.9909     0.9909    -0.0000
 15 N      6.7268     7.0000     0.2732     2.7604     2.7604     0.0000
 16 O      7.8713     8.0000     0.1287     2.6016     2.6016     0.0000
 17 O      8.0766     8.0000    -0.0766     1.7316     1.7316     0.0000

  Mayer bond orders larger than 0.100000
B(  0-C ,  1-C ) :   1.2546 B(  0-C ,  5-C ) :   1.2132 B(  0-C ,  6-C ) :   1.1049 
B(  0-C , 15-N ) :   0.1304 B(  0-C , 17-O ) :   0.1191 B(  1-C ,  2-C ) :   1.4626 
B(  1-C , 10-H ) :   0.9882 B(  2-C ,  3-C ) :   1.2552 B(  2-C , 11-H ) :   0.9847 
B(  3-C ,  4-C ) :   1.2730 B(  3-C , 12-H ) :   0.9836 B(  3-C , 15-N ) :   0.1402 
B(  3-C , 17-O ) :   0.1280 B(  4-C ,  5-C ) :   1.4717 B(  4-C , 13-H ) :   0.9860 
B(  5-C , 14-H ) :   0.9913 B(  6-C ,  7-H ) :   0.9272 B(  6-C ,  8-H ) :   0.9132 
B(  6-C ,  9-H ) :   0.9577 B( 15-N , 16-O ) :   1.7850 B( 15-N , 17-O ) :   0.5189 
B( 16-O , 17-O ) :   0.7958 

-------
TIMINGS
-------

Total SCF time: 0 days 0 hours 8 min 23 sec 

Total time                  ....     503.555 sec
Sum of individual times     ....     497.258 sec  ( 98.7%)

Fock matrix formation       ....     487.516 sec  ( 96.8%)
  Split-RI-J                ....      65.926 sec  ( 13.5% of F)
  Chain of spheres X        ....     351.185 sec  ( 72.0% of F)
  XC integration            ....      69.965 sec  ( 14.4% of F)
    Basis function eval.    ....      23.484 sec  ( 33.6% of XC)
    Density eval.           ....      18.420 sec  ( 26.3% of XC)
    XC-Functional eval.     ....       5.316 sec  (  7.6% of XC)
    XC-Potential eval.      ....      16.739 sec  ( 23.9% of XC)
Diagonalization             ....       0.381 sec  (  0.1%)
Density matrix formation    ....       0.048 sec  (  0.0%)
Population analysis         ....       0.049 sec  (  0.0%)
Initial guess               ....       0.929 sec  (  0.2%)
Orbital Transformation      ....       0.275 sec  (  0.1%)
Orbital Orthonormalization  ....       0.000 sec  (  0.0%)
DIIS solution               ....       0.681 sec  (  0.1%)
SOSCF solution              ....       0.000 sec  (  0.0%)
Grid generation             ....       7.379 sec  (  1.5%)

Maximum memory used throughout the entire SCF-calculation: 69.5 MB


-------------------------------------------------------------------------------
                          DFT DISPERSION CORRECTION                            
                                                                               
                                 DFTD4 V2.5                                    
-------------------------------------------------------------------------------
The B3LYP functional is recognized
Active option DFTDOPT                   ...         5   

Starting D4
-------------------------   ----------------
Dispersion correction           -0.021363240
-------------------------   ----------------


-------------------------   --------------------
FINAL SINGLE POINT ENERGY      -475.537487073013
-------------------------   --------------------

------------------------------------------------------------------------------
                         ORCA SCF GRADIENT CALCULATION
------------------------------------------------------------------------------

 ... reading COSX grid (gridx3)
Gradient of the Kohn-Sham DFT energy:
Kohn-Sham wavefunction type      ... RKS
Hartree-Fock exchange scaling    ...    0.200
Number of operators              ...    1
Number of atoms                  ...   18
Basis set dimensions             ...  180
Integral neglect threshold       ... 2.5e-11
Integral primitive cutoff        ... 2.5e-12
SHARK Integral package           ... ON

Nuc. rep. gradient       (SHARK) ... done (  0.0 sec)
HCore & Overlap gradient (SHARK) ... done (  0.6 sec)
RI-J gradient            (SHARK) ... done (  4.0 sec)
COSX-gradient                    ... done ( 27.6 sec)
Exchange-correlation gradient    ... done
Dispersion correction            ... Starting D4


------------------- 
Dispersion Gradient 
------------------- 
   1  :   -0.000017140    0.000128573    0.000277053
   2  :   -0.000242034    0.000302268   -0.000150991
   3  :   -0.000201498    0.000129878   -0.000448327
   4  :    0.000024604   -0.000186912   -0.000412218
   5  :    0.000240108   -0.000415178   -0.000181492
   6  :    0.000239849   -0.000290175    0.000146874
   7  :   -0.000032226    0.000249813    0.000577449
   8  :    0.000035080    0.000073204    0.000147203
   9  :   -0.000041942    0.000031431    0.000166488
  10  :   -0.000021193    0.000089504    0.000129379
  11  :   -0.000120301    0.000165679   -0.000031001
  12  :   -0.000082715    0.000067832   -0.000143084
  13  :    0.000009169   -0.000071386   -0.000157630
  14  :    0.000092684   -0.000147895   -0.000034986
  15  :    0.000117162   -0.000126867    0.000112976
  16  :   -0.000001186   -0.000032655    0.000027165
  17  :    0.000008991   -0.000034582    0.000056824
  18  :   -0.000007412    0.000067468   -0.000081682

  |G| =    0.000971714

done

------------------
CARTESIAN GRADIENT
------------------

   1   C   :    0.000124488   -0.000575010   -0.001296169
   2   C   :    0.000499855   -0.000328248    0.001114728
   3   C   :    0.000492633   -0.000898812   -0.000511802
   4   C   :   -0.000104771    0.000266686    0.000252688
   5   C   :   -0.000410618    0.000222714   -0.000843002
   6   C   :   -0.000615033    0.001069285    0.000484092
[...]
      9       0.007236   0.104382  -0.023278  -0.001787  -0.000052  -0.000062
     10      -0.039985  -0.127320   0.073395   0.004893   0.000122   0.000038
     11      -0.079142   0.074471   0.106388   0.006227   0.000164  -0.000043
     12       0.046572  -0.045123  -0.016928  -0.002476  -0.000181   0.000106
     13      -0.016575   0.104017  -0.079850  -0.002588   0.000201  -0.000032
     14       0.142040   0.100292  -0.284124  -0.016765  -0.000263   0.000061
     15      -0.046661   0.024502  -0.064540  -0.006147   0.000183   0.000466
     16       0.073523  -0.085646   0.192016   0.014526  -0.000234   0.000227
     17       0.013286  -0.133528   0.260834   0.014683  -0.000355   0.000408
     18      -0.002195  -0.008567  -0.002969  -0.000243  -0.019255  -0.073907
     19       0.037461   0.007090   0.018966   0.000558  -0.020067  -0.040735
     20       0.057809  -0.013327   0.035672   0.005375   0.054853  -0.010152
     21       0.010077   0.011938   0.014744   0.006577  -0.351490   0.788781
     22      -0.168184   0.042773  -0.023858   0.015657  -0.027878   0.031038
     23       0.051080  -0.060656   0.003057  -0.001861  -0.142674   0.368984
     24       0.087066  -0.057548   0.001461  -0.013661   0.474374   0.212951
     25      -0.045414   0.031532  -0.011357   0.000772   0.530018   0.256922
     26       0.051205  -0.032097   0.007846   0.003908  -0.516499  -0.265317
     27      -0.088237   0.004666  -0.019376   0.004911   0.111664  -0.109521
     28      -0.002990   0.012111   0.012575   0.003050  -0.257440   0.199232
     29      -0.137520   0.129394  -0.005107   0.003951   0.006458   0.002463
     30      -0.086052  -0.121611  -0.148005  -0.004709  -0.001539   0.001409
     31      -0.039348   0.074241   0.106338   0.002710   0.002417  -0.002884
     32      -0.452500  -0.282839  -0.310927  -0.013182   0.000883  -0.000678
     33       0.130844  -0.167227  -0.159196  -0.005205   0.000661   0.000457
     34      -0.305446   0.267896   0.282553   0.009782   0.000088   0.000544
     35      -0.306953   0.053409   0.125274   0.005168   0.001107  -0.000677
     36      -0.022669  -0.390323   0.012883   0.000536  -0.000315  -0.000418
     37      -0.009397   0.495851   0.038097   0.002927   0.000571  -0.000411
     38      -0.115094  -0.225095   0.149935   0.009030   0.001553  -0.000036
     39      -0.107291  -0.129618   0.144675   0.004890  -0.000435   0.000308
     40      -0.008048   0.132195  -0.110171  -0.003495   0.001142  -0.000633
     41      -0.457157  -0.160988   0.282353   0.009886   0.000757  -0.000322
     42       0.113305  -0.147388   0.181775   0.006634   0.001224  -0.003211
     43      -0.276003   0.276298  -0.322587  -0.012262  -0.001225   0.000924
     44      -0.294361   0.151643  -0.150800  -0.008394   0.003584  -0.004050
     45       0.000598   0.000076   0.012388  -0.443782  -0.000165   0.000011
     46       0.000308   0.000046   0.011544  -0.582427  -0.000439   0.000030
     47       0.000340   0.000040   0.006135  -0.189667  -0.000031   0.000002
     48      -0.000745  -0.000092  -0.013723   0.434392   0.000088  -0.000006
     49      -0.000275  -0.000037  -0.008873   0.423522   0.000298  -0.000020
     50      -0.000442  -0.000055  -0.007490   0.211590   0.000005  -0.000000
     51       0.000222   0.000025   0.002880  -0.045863   0.000057  -0.000004
     52       0.000004  -0.000003  -0.001233   0.086386   0.000087  -0.000006
     53       0.000145   0.000016   0.002129  -0.045532   0.000023  -0.000002
                 48         49         50         51         52         53    
      0      -0.000150  -0.000831  -0.001392   0.000262  -0.001165   0.000014
      1      -0.000210   0.001612   0.001587   0.000232   0.001369   0.000470
      2      -0.001550   0.000887  -0.001243   0.001575  -0.000946   0.001235
      3       0.001192  -0.008075   0.030344  -0.026626   0.016844  -0.011707
      4      -0.002475   0.012510  -0.048031   0.042562  -0.028007   0.019555
      5      -0.000588   0.001357  -0.007777   0.007953  -0.007946   0.005788
      6      -0.000100   0.009343  -0.021130   0.000155   0.026181  -0.023271
      7       0.000145  -0.008147   0.019202  -0.001909  -0.022370   0.020896
      8      -0.000018   0.015525  -0.032992  -0.004564   0.044764  -0.037038
      9      -0.000097   0.001493  -0.000718  -0.003138  -0.002538   0.002090
     10       0.000150  -0.011889   0.010979   0.025366   0.002865  -0.019205
     11       0.000004  -0.026236   0.026873   0.056097  -0.002427  -0.043655
     12       0.000036  -0.019591  -0.001844   0.010465   0.029542   0.028089
     13      -0.000046   0.030522   0.002011  -0.018014  -0.047553  -0.044402
     14       0.000135   0.004055  -0.001963  -0.006829  -0.010308  -0.007596
     15       0.000523   0.032807   0.017656   0.013604   0.009739   0.008479
     16      -0.000214  -0.029296  -0.015376  -0.011708  -0.007351  -0.006438
     17       0.000205   0.051970   0.029012   0.022745   0.019048   0.016499
     18      -0.049005   0.000279   0.001191  -0.000453   0.000519  -0.000171
     19       0.076512   0.000155  -0.001879   0.001098  -0.000797   0.000449
     20      -0.015601   0.000232   0.000359   0.000011   0.000162  -0.000164
     21       0.279025  -0.004286  -0.006529   0.000272  -0.002543   0.000938
     22       0.023046  -0.001157  -0.000514  -0.000806  -0.000139  -0.000403
     23       0.123904  -0.003060  -0.003014  -0.000957  -0.001024  -0.000137
     24      -0.092230   0.000817   0.002357  -0.000251   0.000926  -0.000816
     25      -0.078525  -0.000166   0.001699  -0.000848   0.000617  -0.001271
     26       0.084101  -0.000994  -0.001972  -0.000466  -0.000581   0.000617
     27       0.395221   0.001108  -0.009643   0.005872  -0.003773   0.002201
     28      -0.847872  -0.003214   0.020844  -0.013419   0.008107  -0.005133
     29      -0.002690  -0.001461   0.000845  -0.001789   0.000273  -0.000889
     30      -0.014449   0.089851  -0.346553   0.301127  -0.191314   0.129852
     31       0.024527  -0.143262   0.552958  -0.480850   0.306285  -0.208065
     32       0.006554  -0.025487   0.099843  -0.087726   0.057878  -0.039690
     33       0.001875  -0.111201   0.244487   0.011392  -0.299172   0.252633
     34      -0.001378   0.098734  -0.217724  -0.008504   0.265449  -0.225100
     35       0.002853  -0.180145   0.393960   0.023044  -0.485227   0.407061
     36       0.000215  -0.015785   0.014872   0.033115   0.002236  -0.024082
     37      -0.000905   0.136241  -0.135268  -0.286543   0.000831   0.210967
     38      -0.001722   0.305874  -0.306853  -0.643400   0.011210   0.474933
     39       0.000352   0.229343   0.017065  -0.129230  -0.334376  -0.306138
     40      -0.000901  -0.364059  -0.026373   0.206586   0.531735   0.486067
     41      -0.000106  -0.066057  -0.002798   0.041392   0.099366   0.088825
     42      -0.002808  -0.373649  -0.203307  -0.154008  -0.114780  -0.096562
     43       0.001877   0.330913   0.179806   0.136046   0.100648   0.084605
     44      -0.005396  -0.598109  -0.326208  -0.247463  -0.186494  -0.157017
     45       0.000058   0.000013  -0.000002   0.000024  -0.000003   0.000029
     46       0.000159   0.000035  -0.000004   0.000066  -0.000009   0.000079
     47       0.000010   0.000002  -0.000000   0.000004  -0.000000   0.000004
     48      -0.000029  -0.000006   0.000001  -0.000011   0.000002  -0.000013
     49      -0.000107  -0.000023   0.000003  -0.000045   0.000006  -0.000053
     50       0.000000   0.000000   0.000000   0.000000   0.000000   0.000001
     51      -0.000022  -0.000005   0.000000  -0.000010   0.000001  -0.000012
     52      -0.000032  -0.000007   0.000001  -0.000013   0.000002  -0.000016
     53      -0.000009  -0.000002   0.000000  -0.000004   0.000001  -0.000005


-----------
IR SPECTRUM
-----------

 Mode   freq       eps      Int      T**2         TX        TY        TZ
       cm**-1   L/(mol*cm) km/mol    a.u.
----------------------------------------------------------------------------
  9:      3.54   0.000000    0.00  0.000000  ( 0.000000  0.000000  0.000000)
 10:      5.90   0.000005    0.02  0.000261  ( 0.002254 -0.011096 -0.011531)
 11:      9.31   0.000839    4.24  0.028134  ( 0.106170 -0.015499 -0.128923)
 12:     13.67   0.000460    2.32  0.010493  ( 0.102088  0.008400 -0.000699)
 13:    180.10   0.000266    1.34  0.000461  ( 0.015775  0.013711 -0.004887)
 14:    319.86   0.022558  114.00  0.022008  (-0.019675 -0.083521 -0.121018)
 15:    348.51   0.001649    8.33  0.001477  ( 0.009619 -0.004122  0.036973)
 16:    380.27   0.000003    0.02  0.000003  ( 0.001177 -0.001135  0.000191)
 17:    402.63   0.604437  3054.58  0.468477  ( 0.105360  0.062824  0.673372)
 18:    440.30   0.000278    1.41  0.000197  ( 0.010644  0.007250 -0.005596)
 19:    519.92   0.013824   69.86  0.008297  (-0.013903 -0.009580 -0.089512)
 20:    547.25   0.001944    9.83  0.001109  (-0.011285  0.006022 -0.030744)
 21:    628.14   0.004798   24.25  0.002384  (-0.036755 -0.023768  0.021626)
 22:    753.16   0.006804   34.38  0.002819  (-0.043407 -0.030570 -0.000558)
 23:    792.89   0.021652  109.42  0.008522  ( 0.020970  0.012099  0.089083)
 24:    823.89   0.000071    0.36  0.000027  (-0.004083 -0.002041 -0.002430)
 25:    935.56   0.006343   32.05  0.002116  (-0.001800 -0.003500 -0.045827)
 26:    974.99   0.052929  267.48  0.016941  ( 0.020158  0.012724  0.127956)
 27:   1004.34   0.034682  175.27  0.010776  (-0.010779 -0.004926 -0.103130)
 28:   1010.74   0.003312   16.74  0.001022  (-0.020142 -0.007925  0.023537)
 29:   1017.93   0.000275    1.39  0.000084  (-0.005189 -0.002239  0.007246)
 30:   1020.81   0.009187   46.43  0.002808  (-0.009615  0.000012 -0.052116)
 31:   1036.45   0.000127    0.64  0.000038  ( 0.001061  0.001300  0.005959)
 32:   1096.73   0.003798   19.19  0.001081  ( 0.017473 -0.018495  0.020817)
 33:   1154.94   0.006830   34.52  0.001845  ( 0.006032  0.005686  0.042151)
 34:   1197.20   0.100924  510.03  0.026307  (-0.025595 -0.016877 -0.159271)
 35:   1253.45   0.092978  469.87  0.023148  (-0.021134 -0.018248 -0.149561)
 36:   1302.44   0.030296  153.10  0.007259  ( 0.011895  0.010159  0.083751)
 37:   1352.98   0.066414  335.63  0.015318  (-0.012931 -0.008662 -0.122785)
 38:   1386.53   0.000939    4.74  0.000211  (-0.013160  0.006110 -0.000882)
 39:   1413.74   0.001893    9.56  0.000418  ( 0.008088  0.011709 -0.014672)
 40:   1415.28   0.003832   19.37  0.000845  ( 0.024202 -0.011541  0.011226)
 41:   1452.88   0.032098  162.21  0.006894  (-0.011082  0.002927 -0.082237)
 42:   1489.60   0.056775  286.92  0.011894  (-0.006348 -0.029702 -0.104745)
 43:   1518.76   0.003888   19.65  0.000799  (-0.015905  0.018739 -0.013956)
 44:   1671.69   0.605444  3059.67  0.113021  (-0.053077 -0.035983 -0.330014)
 45:   1867.56   0.617462  3120.40  0.103176  ( 0.032355  0.065992  0.312689)
 46:   2988.45   0.120305  607.97  0.012563  (-0.012435 -0.014729 -0.110413)
 47:   3056.32   0.000532    2.69  0.000054  ( 0.003986  0.001756  0.005942)
 48:   3150.58   0.021307  107.68  0.002110  ( 0.003999  0.010132  0.044630)
 49:   3193.79   0.001008    5.10  0.000099  ( 0.001082  0.001740  0.009712)
 50:   3197.45   0.000056    0.28  0.000005  (-0.000256 -0.000388 -0.002284)
 51:   3203.57   0.002773   14.02  0.000270  ( 0.002504  0.001950  0.016127)
 52:   3212.20   0.000149    0.75  0.000014  (-0.001742  0.001634 -0.002954)
 53:   3217.23   0.003625   18.32  0.000352  ( 0.002943  0.002096  0.018401)

* The epsilon (eps) is given for a Dirac delta lineshape.
** The dipole moment derivative (T) already includes vibrational overlap.

The first frequency considered to be a vibration is 9
The total number of vibrations considered is 45


--------------------------
THERMOCHEMISTRY AT 298.15K
--------------------------

Temperature         ... 298.15 K
Pressure            ... 1.00 atm
Total Mass          ... 138.15 AMU

Throughout the following assumptions are being made:
  (1) The electronic state is orbitally nondegenerate
  (2) There are no thermally accessible electronically excited states
  (3) Hindered rotations indicated by low frequency modes are not
      treated as such but are treated as vibrations and this may
      cause some error
  (4) All equations used are the standard statistical mechanics
      equations for an ideal gas
  (5) All vibrations are strictly harmonic

freq.       3.54  E(vib)   ...       0.59 
freq.       5.90  E(vib)   ...       0.58 
freq.       9.31  E(vib)   ...       0.58 
freq.      13.67  E(vib)   ...       0.57 
freq.     180.10  E(vib)   ...       0.37 
freq.     319.86  E(vib)   ...       0.25 
freq.     348.51  E(vib)   ...       0.23 
freq.     380.27  E(vib)   ...       0.21 
freq.     402.63  E(vib)   ...       0.19 
freq.     440.30  E(vib)   ...       0.17 
freq.     519.92  E(vib)   ...       0.13 
freq.     547.25  E(vib)   ...       0.12 
freq.     628.14  E(vib)   ...       0.09 
freq.     753.16  E(vib)   ...       0.06 
freq.     792.89  E(vib)   ...       0.05 
freq.     823.89  E(vib)   ...       0.05 
freq.     935.56  E(vib)   ...       0.03 
freq.     974.99  E(vib)   ...       0.03 
freq.    1004.34  E(vib)   ...       0.02 
freq.    1010.74  E(vib)   ...       0.02 
freq.    1017.93  E(vib)   ...       0.02 
freq.    1020.81  E(vib)   ...       0.02 
freq.    1036.45  E(vib)   ...       0.02 
freq.    1096.73  E(vib)   ...       0.02 
freq.    1154.94  E(vib)   ...       0.01 
freq.    1197.20  E(vib)   ...       0.01 
freq.    1253.45  E(vib)   ...       0.01 
freq.    1302.44  E(vib)   ...       0.01 
freq.    1352.98  E(vib)   ...       0.01 
freq.    1386.53  E(vib)   ...       0.00 
freq.    1413.74  E(vib)   ...       0.00 
freq.    1415.28  E(vib)   ...       0.00 
freq.    1452.88  E(vib)   ...       0.00 
freq.    1489.60  E(vib)   ...       0.00 
freq.    1518.76  E(vib)   ...       0.00 
freq.    1671.69  E(vib)   ...       0.00 
freq.    1867.56  E(vib)   ...       0.00 
freq.    2988.45  E(vib)   ...       0.00 
freq.    3056.32  E(vib)   ...       0.00 
freq.    3150.58  E(vib)   ...       0.00 
freq.    3193.79  E(vib)   ...       0.00 
freq.    3197.45  E(vib)   ...       0.00 
freq.    3203.57  E(vib)   ...       0.00 
freq.    3212.20  E(vib)   ...       0.00 
freq.    3217.23  E(vib)   ...       0.00 

------------
INNER ENERGY
------------

The inner energy is: U= E(el) + E(ZPE) + E(vib) + E(rot) + E(trans)
    E(el)   - is the total energy from the electronic structure calculation
              = E(kin-el) + E(nuc-el) + E(el-el) + E(nuc-nuc)
    E(ZPE)  - the the zero temperature vibrational energy from the frequency calculation
    E(vib)  - the the finite temperature correction to E(ZPE) due to population
              of excited vibrational states
    E(rot)  - is the rotational thermal energy
    E(trans)- is the translational thermal energy

Summary of contributions to the inner energy U:
Electronic energy                ...   -475.54829225 Eh
Zero point energy                ...      0.13205062 Eh      82.86 kcal/mol
Thermal vibrational correction   ...      0.00715143 Eh       4.49 kcal/mol
Thermal rotational correction    ...      0.00141627 Eh       0.89 kcal/mol
Thermal translational correction ...      0.00141627 Eh       0.89 kcal/mol
-----------------------------------------------------------------------
Total thermal energy                   -475.40625766 Eh


Summary of corrections to the electronic energy:
(perhaps to be used in another calculation)
Total thermal correction                  0.00998397 Eh       6.27 kcal/mol
Non-thermal (ZPE) correction              0.13205062 Eh      82.86 kcal/mol
-----------------------------------------------------------------------
Total correction                          0.14203459 Eh      89.13 kcal/mol


--------
ENTHALPY
--------

The enthalpy is H = U + kB*T
                kB is Boltzmann's constant
Total free energy                 ...   -475.40625766 Eh 
Thermal Enthalpy correction       ...      0.00094421 Eh       0.59 kcal/mol
-----------------------------------------------------------------------
Total Enthalpy                    ...   -475.40531345 Eh


Note: Only C1 symmetry has been detected, increase convergence thresholds 
      if your molecule has a higher symmetry. Symmetry factor of 1.0 is   
      used for the rotational entropy correction. 
 

Note: Rotational entropy computed according to Herzberg 
Infrared and Raman Spectra, Chapter V,1, Van Nostrand Reinhold, 1945 
Point Group:  C1, Symmetry Number:   1  
Rotational constants in cm-1:     0.114895     0.001210     0.001200 

Vibrational entropy computed according to the QRRHO of S. Grimme
Chem.Eur.J. 2012 18 9955


-------
ENTROPY
-------

The entropy contributions are T*S = T*(S(el)+S(vib)+S(rot)+S(trans))
     S(el)   - electronic entropy
     S(vib)  - vibrational entropy
     S(rot)  - rotational entropy
     S(trans)- translational entropy
The entropies will be listed as multiplied by the temperature to get
units of energy

Electronic entropy                ...      0.00000000 Eh      0.00 kcal/mol
Vibrational entropy               ...      0.01555530 Eh      9.76 kcal/mol
Rotational entropy                ...      0.01687850 Eh     10.59 kcal/mol
Translational entropy             ...      0.01932890 Eh     12.13 kcal/mol
-----------------------------------------------------------------------
Final entropy term                ...      0.05176270 Eh     32.48 kcal/mol

In case the symmetry of your molecule has not been determined correctly
or in case you have a reason to use a different symmetry number we print 
out the resulting rotational entropy values for sn=1,12 :
 --------------------------------------------------------
|  sn= 1 | S(rot)=       0.01687850 Eh     10.59 kcal/mol|
|  sn= 2 | S(rot)=       0.01622405 Eh     10.18 kcal/mol|
|  sn= 3 | S(rot)=       0.01584121 Eh      9.94 kcal/mol|
|  sn= 4 | S(rot)=       0.01556959 Eh      9.77 kcal/mol|
|  sn= 5 | S(rot)=       0.01535890 Eh      9.64 kcal/mol|
|  sn= 6 | S(rot)=       0.01518676 Eh      9.53 kcal/mol|
|  sn= 7 | S(rot)=       0.01504121 Eh      9.44 kcal/mol|
|  sn= 8 | S(rot)=       0.01491513 Eh      9.36 kcal/mol|
|  sn= 9 | S(rot)=       0.01480393 Eh      9.29 kcal/mol|
|  sn=10 | S(rot)=       0.01470445 Eh      9.23 kcal/mol|
|  sn=11 | S(rot)=       0.01461446 Eh      9.17 kcal/mol|
|  sn=12 | S(rot)=       0.01453230 Eh      9.12 kcal/mol|
 --------------------------------------------------------


-------------------
GIBBS FREE ENERGY
-------------------

The Gibbs free energy is G = H - T*S

Total enthalpy                    ...   -475.40531345 Eh 
Total entropy correction          ...     -0.05176270 Eh    -32.48 kcal/mol
-----------------------------------------------------------------------
Final Gibbs free energy         ...   -475.45707615 Eh

For completeness - the Gibbs free energy minus the electronic energy
G-E(el)                           ...      0.09121610 Eh     57.24 kcal/mol


Timings for individual modules:

Sum of individual times         ...    20417.427 sec (= 340.290 min)
GTO integral calculation        ...       56.843 sec (=   0.947 min)   0.3 %
SCF iterations                  ...    15681.034 sec (= 261.351 min)  76.8 %
SCF Gradient evaluation         ...     3833.493 sec (=  63.892 min)  18.8 %
Geometry relaxation             ...       18.931 sec (=   0.316 min)   0.1 %
Analytical frequency calculation...      827.126 sec (=  13.785 min)   4.1 %
                             ****ORCA TERMINATED NORMALLY****
TOTAL RUN TIME: 0 days 5 hours 41 minutes 29 seconds 141 msec
