
                                 *****************
                                 * O   R   C   A *
                                 *****************

                                            #,                                       
                                            ###                                      
                                            ####                                     
                                            #####                                    
                                            ######                                   
                                           ########,                                 
                                     ,,################,,,,,                         
                               ,,#################################,,                 
                          ,,##########################################,,             
                       ,#########################################, ''#####,          
                    ,#############################################,,   '####,        
                  ,##################################################,,,,####,       
                ,###########''''           ''''###############################       
              ,#####''   ,,,,##########,,,,          '''####'''          '####       
            ,##' ,,,,###########################,,,                        '##       
           ' ,,###''''                  '''############,,,                           
         ,,##''                                '''############,,,,        ,,,,,,###''
      ,#''                                            '''#######################'''  
     '                                                          ''''####''''         
             ,#######,   #######,   ,#######,      ##                                
            ,#'     '#,  ##    ##  ,#'     '#,    #''#        ######   ,####,        
            ##       ##  ##   ,#'  ##            #'  '#       #        #'  '#        
            ##       ##  #######   ##           ,######,      #####,   #    #        
            '#,     ,#'  ##    ##  '#,     ,#' ,#      #,         ##   #,  ,#        
             '#######'   ##     ##  '#######'  #'      '#     #####' # '####'        



                  #######################################################
                  #                        -***-                        #
                  #          Department of theory and spectroscopy      #
                  #    Directorship and core code : Frank Neese         #
                  #        Max Planck Institute fuer Kohlenforschung    #
                  #                Kaiser Wilhelm Platz 1               #
                  #                 D-45470 Muelheim/Ruhr               #
                  #                      Germany                        #
                  #                                                     #
                  #                  All rights reserved                #
                  #                        -***-                        #
                  #######################################################



                         Program Version 5.0.4 -  RELEASE  -

 With contributions from (in alphabetic order):
   Daniel Aravena         : Magnetic Suceptibility
   Michael Atanasov       : Ab Initio Ligand Field Theory (pilot matlab implementation)
   Alexander A. Auer      : GIAO ZORA, VPT2 properties, NMR spectrum
   Ute Becker             : Parallelization
   Giovanni Bistoni       : ED, misc. LED, open-shell LED, HFLD
   Martin Brehm           : Molecular dynamics
   Dmytro Bykov           : SCF Hessian
   Vijay G. Chilkuri      : MRCI spin determinant printing, contributions to CSF-ICE
   Dipayan Datta          : RHF DLPNO-CCSD density
   Achintya Kumar Dutta   : EOM-CC, STEOM-CC
   Dmitry Ganyushin       : Spin-Orbit,Spin-Spin,Magnetic field MRCI
   Miquel Garcia          : C-PCM and meta-GGA Hessian, CC/C-PCM, Gaussian charge scheme
   Yang Guo               : DLPNO-NEVPT2, F12-NEVPT2, CIM, IAO-localization
   Andreas Hansen         : Spin unrestricted coupled pair/coupled cluster methods
   Benjamin Helmich-Paris : MC-RPA, TRAH-SCF, COSX integrals
   Lee Huntington         : MR-EOM, pCC
   Robert Izsak           : Overlap fitted RIJCOSX, COSX-SCS-MP3, EOM
   Marcus Kettner         : VPT2
   Christian Kollmar      : KDIIS, OOCD, Brueckner-CCSD(T), CCSD density, CASPT2, CASPT2-K
   Simone Kossmann        : Meta GGA functionals, TD-DFT gradient, OOMP2, MP2 Hessian
   Martin Krupicka        : Initial AUTO-CI
   Lucas Lang             : DCDCAS
   Marvin Lechner         : AUTO-CI (C++ implementation), FIC-MRCC
   Dagmar Lenk            : GEPOL surface, SMD
   Dimitrios Liakos       : Extrapolation schemes; Compound Job, initial MDCI parallelization
   Dimitrios Manganas     : Further ROCIS development; embedding schemes
   Dimitrios Pantazis     : SARC Basis sets
   Anastasios Papadopoulos: AUTO-CI, single reference methods and gradients
   Taras Petrenko         : DFT Hessian,TD-DFT gradient, ASA, ECA, R-Raman, ABS, FL, XAS/XES, NRVS
   Peter Pinski           : DLPNO-MP2, DLPNO-MP2 Gradient
   Christoph Reimann      : Effective Core Potentials
   Marius Retegan         : Local ZFS, SOC
   Christoph Riplinger    : Optimizer, TS searches, QM/MM, DLPNO-CCSD(T), (RO)-DLPNO pert. Triples
   Tobias Risthaus        : Range-separated hybrids, TD-DFT gradient, RPA, STAB
   Michael Roemelt        : Original ROCIS implementation
   Masaaki Saitow         : Open-shell DLPNO-CCSD energy and density
   Barbara Sandhoefer     : DKH picture change effects
   Avijit Sen             : IP-ROCIS
   Kantharuban Sivalingam : CASSCF convergence, NEVPT2, FIC-MRCI
   Bernardo de Souza      : ESD, SOC TD-DFT
   Georgi Stoychev        : AutoAux, RI-MP2 NMR, DLPNO-MP2 response
   Willem Van den Heuvel  : Paramagnetic NMR
   Boris Wezisla          : Elementary symmetry handling
   Frank Wennmohs         : Technical directorship


 We gratefully acknowledge several colleagues who have allowed us to
 interface, adapt or use parts of their codes:
   Stefan Grimme, W. Hujo, H. Kruse, P. Pracht,  : VdW corrections, initial TS optimization,
                  C. Bannwarth, S. Ehlert          DFT functionals, gCP, sTDA/sTD-DF
   Ed Valeev, F. Pavosevic, A. Kumar             : LibInt (2-el integral package), F12 methods
   Garnet Chan, S. Sharma, J. Yang, R. Olivares  : DMRG
   Ulf Ekstrom                                   : XCFun DFT Library
   Mihaly Kallay                                 : mrcc  (arbitrary order and MRCC methods)
   Jiri Pittner, Ondrej Demel                    : Mk-CCSD
   Frank Weinhold                                : gennbo (NPA and NBO analysis)
   Christopher J. Cramer and Donald G. Truhlar   : smd solvation model
   Lars Goerigk                                  : TD-DFT with DH, B97 family of functionals
   V. Asgeirsson, H. Jonsson                     : NEB implementation
   FAccTs GmbH                                   : IRC, NEB, NEB-TS, DLPNO-Multilevel, CI-OPT
                                                   MM, QMMM, 2- and 3-layer-ONIOM, Crystal-QMMM,
                                                   LR-CPCM, SF, NACMEs, symmetry and pop. for TD-DFT,
                                                   nearIR, NL-DFT gradient (VV10), updates on ESD,
                                                   ML-optimized integration grids
   S Lehtola, MJT Oliveira, MAL Marques          : LibXC Library
   Liviu Ungur et al                             : ANISO software


 Your calculation uses the libint2 library for the computation of 2-el integrals
 For citations please refer to: http://libint.valeyev.net

 Your ORCA version has been built with support for libXC version: 5.1.0
 For citations please refer to: https://tddft.org/programs/libxc/

 This ORCA versions uses:
   CBLAS   interface :  Fast vector & matrix operations
   LAPACKE interface :  Fast linear algebra routines
   Shared memory     :  Shared parallel matrices


Your calculation utilizes the atom-pairwise dispersion correction
based on tight binding partial charges (D4)
Cite in your paper:
E.Caldeweyher, C.Bannwarth, S.Grimme, J.Chem.Phys., (2017), 147, 034112.
E.Caldeweyher, S.Ehlert, A.Hansen, H.Neugebauer, S.Grimme, J.Chem.Phys., (2018), in progress.
   

================================================================================

----- Orbital basis set information -----
Your calculation utilizes the basis: def2-SVP
   F. Weigend and R. Ahlrichs, Phys. Chem. Chem. Phys. 7, 3297 (2005).

----- AuxJ basis set information -----
Your calculation utilizes the auxiliary basis: def2/J
   F. Weigend, Phys. Chem. Chem. Phys. 8, 1057 (2006).

================================================================================
                                        WARNINGS
                       Please study these warnings very carefully!
================================================================================


WARNING: Geometry Optimization
  ===> : Switching off AutoStart
         For restart on a previous wavefunction, please use MOREAD

INFO   : the flag for use of the SHARK integral package has been found!

================================================================================
                                       INPUT FILE
================================================================================
NAME = educts_optfreq_4.inp
|  1> !B3LYP DEF2-SVP OPT FREQ D4 SOSCF
|  2> 
|  3> %geom 
|  4> convergence tight
|  5> end
|  6> 
|  7> 
|  8> * xyz 1 1
|  9>   C   0.37759623275554      0.51238423925244      3.03815455961459
| 10>   C   -0.27225457628216      1.22065861936783      1.98629423140801
| 11>   C   -0.26004171484010      0.72489072579318      0.69511246328414
| 12>   C   0.39407213021949     -0.49883809834406      0.41323835260164
| 13>   C   1.04016599929518     -1.21885017018099      1.44501020260160
| 14>   C   1.03592684962198     -0.72161017659743      2.73357031417468
| 15>   C   0.38107436154817      1.03129076410766      4.42823280373650
| 16>   H   1.41762742771500      1.18757754711270      4.78667741527000
| 17>   H   -0.03514895069053      0.27514096499399      5.12284902923161
| 18>   H   -0.18239575672109      1.96649976070195      4.54015345462693
| 19>   H   -0.78395462987146      2.15769000012549      2.21633301846836
| 20>   H   -0.75423730749220      1.27547666948537     -0.10943937056499
| 21>   H   0.39957203796667     -0.88623463695767     -0.61017310849245
| 22>   H   1.53671539185017     -2.16381341636585      1.21454700602879
| 23>   H   1.54000430487060     -1.26643407437898      3.53561790277304
| 24>   N   -1.62759559892291     -2.11532134309062    -11.26246598166809
| 25>   O   -1.85521550300905     -1.00625501380964    -11.16597633722637
| 26>   O   -2.03279069801330     -0.56519236121535    -12.65947595586798
| 27> **                         ****END OF INPUT****
================================================================================

                       *****************************
                       * Geometry Optimization Run *
                       *****************************

Geometry optimization settings:
Update method            Update   .... BFGS
Choice of coordinates    CoordSys .... Z-matrix Internals
Initial Hessian          InHess   .... Almoef's Model

Convergence Tolerances:
Energy Change            TolE     ....  1.0000e-06 Eh
Max. Gradient            TolMAXG  ....  1.0000e-04 Eh/bohr
RMS Gradient             TolRMSG  ....  3.0000e-05 Eh/bohr
Max. Displacement        TolMAXD  ....  1.0000e-03 bohr
RMS Displacement         TolRMSD  ....  6.0000e-04 bohr
Strict Convergence                ....  False
------------------------------------------------------------------------------
                        ORCA OPTIMIZATION COORDINATE SETUP
------------------------------------------------------------------------------

The optimization will be done in new redundant internal coordinates
Making redundant internal coordinates   ...  (new redundants) done
Evaluating the initial hessian          ...  (Almloef) done
Evaluating the coordinates              ...  done
Calculating the B-matrix                .... done
Calculating the G-matrix                .... done
Diagonalizing the G-matrix              .... done
Small eigenvalue found = 2.340e-02
The first mode is                       ....   44
The number of degrees of freedom        ....   48

    -----------------------------------------------------------------
                    Redundant Internal Coordinates


    -----------------------------------------------------------------
         Definition                    Initial Value    Approx d2E/dq
    -----------------------------------------------------------------
      1. B(C   1,C   0)                  1.4249         0.549594   
      2. B(C   2,C   1)                  1.3831         0.640734   
      3. B(C   3,C   2)                  1.4159         0.568047   
      4. B(C   4,C   3)                  1.4144         0.571317   
      5. B(C   5,C   4)                  1.3812         0.645377   
      6. B(C   5,C   0)                  1.4314         0.536641   
      7. B(C   6,C   0)                  1.4838         0.442714   
      8. B(H   7,C   6)                  1.1079         0.337234   
      9. B(H   8,C   6)                  1.1079         0.337152   
     10. B(H   9,C   6)                  1.0976         0.350235   
     11. B(H  10,C   1)                  1.0921         0.357272   
     12. B(H  11,C   2)                  1.0930         0.356136   
     13. B(H  12,C   3)                  1.0943         0.354465   
     14. B(H  13,C   4)                  1.0921         0.357364   
     15. B(H  14,C   5)                  1.0928         0.356418   
     16. B(N  15,H  12)                 10.9129         0.000000   
     17. B(N  15,H  11)                 11.6898         0.000000   
     18. B(O  16,H  12)                 10.7946         0.000000   
     19. B(O  16,H  11)                 11.3431         0.000000   
     20. B(O  16,C   3)                 11.8066         0.000000   
     21. B(O  16,N  15)                  1.1363         1.272901   
     22. B(O  17,O  16)                  1.5674         0.261246   
     23. A(C   1,C   0,C   5)          118.7631         0.413983   
     24. A(C   1,C   0,C   6)          121.2527         0.400134   
     25. A(C   5,C   0,C   6)          119.9842         0.398459   
     26. A(C   0,C   1,H  10)          118.9903         0.345348   
     27. A(C   0,C   1,C   2)          120.4589         0.427288   
     28. A(C   2,C   1,H  10)          120.5501         0.354407   
     29. A(C   3,C   2,H  11)          119.8478         0.347085   
     30. A(C   1,C   2,C   3)          119.9802         0.429826   
     31. A(C   1,C   2,H  11)          120.1720         0.354216   
     32. A(C   2,C   3,C   4)          120.3833         0.421094   
     33. A(C   2,C   3,O  16)           98.3011         0.089057   
     34. A(C   4,C   3,H  12)          119.9822         0.347146   
     35. A(H  12,C   3,O  16)           21.3342         0.089044   
     36. A(C   4,C   3,O  16)          141.3156         0.089057   
     37. A(C   2,C   3,H  12)          119.6344         0.346811   
     38. A(C   5,C   4,H  13)          120.6499         0.354857   
     39. A(C   3,C   4,H  13)          119.6205         0.347622   
     40. A(C   3,C   4,C   5)          119.7295         0.430828   
     41. A(C   4,C   5,H  14)          120.2531         0.354697   
     42. A(C   0,C   5,C   4)          120.6832         0.426017   
     43. A(C   0,C   5,H  14)          119.0634         0.343830   
     44. A(H   8,C   6,H   9)          108.9497         0.286607   
     45. A(H   7,C   6,H   9)          109.0955         0.286618   
     46. A(C   0,C   6,H   9)          113.0988         0.332006   
     47. A(H   7,C   6,H   8)          104.1777         0.284923   
     48. A(C   0,C   6,H   8)          110.3528         0.329922   
     49. A(C   0,C   6,H   7)          110.7716         0.329935   
     50. A(C   3,O  16,O  17)          160.7378         0.089047   
     51. A(C   3,O  16,N  15)           94.9949         0.089067   
     52. A(N  15,O  16,O  17)          102.5003         0.411968   
     53. D(H  10,C   1,C   0,C   5)    179.4150         0.020662   
     54. D(C   2,C   1,C   0,C   5)     -0.2800         0.020662   
     55. D(C   2,C   1,C   0,C   6)    179.7012         0.020662   
     56. D(H  10,C   1,C   0,C   6)     -0.6039         0.020662   
     57. D(C   3,C   2,C   1,C   0)      0.4082         0.028528   
     58. D(H  11,C   2,C   1,C   0)   -179.5844         0.028528   
     59. D(C   3,C   2,C   1,H  10)   -179.2819         0.028528   
     60. D(H  11,C   2,C   1,H  10)      0.7254         0.028528   
     61. D(O  16,C   3,C   2,H  11)     -0.2517         0.024023   
     62. D(H  12,C   3,C   2,H  11)     -0.0551         0.024023   
     63. D(H  12,C   3,C   2,C   1)    179.9522         0.024023   
     64. D(C   4,C   3,C   2,C   1)     -0.1599         0.024023   
     65. D(C   4,C   3,C   2,H  11)    179.8328         0.024023   
     66. D(O  16,C   3,C   2,C   1)    179.7556         0.024023   
     67. D(C   5,C   4,C   3,C   2)     -0.2215         0.024314   
     68. D(H  13,C   4,C   3,O  16)     -0.1614         0.024314   
     69. D(H  13,C   4,C   3,H  12)     -0.4076         0.024314   
     70. D(H  13,C   4,C   3,C   2)    179.7048         0.024314   
     71. D(C   5,C   4,C   3,O  16)    179.9123         0.024314   
     72. D(C   5,C   4,C   3,H  12)    179.6660         0.024314   
     73. D(H  14,C   5,C   4,H  13)      0.6147         0.028972   
     74. D(C   0,C   5,C   4,H  13)   -179.5765         0.028972   
     75. D(C   0,C   5,C   4,C   3)      0.3490         0.028972   
     76. D(H  14,C   5,C   0,C   6)     -0.2741         0.019670   
     77. D(H  14,C   5,C   0,C   1)    179.7074         0.019670   
     78. D(H  14,C   5,C   4,C   3)   -179.4598         0.028972   
     79. D(C   4,C   5,C   0,C   6)    179.9149         0.019670   
     80. D(C   4,C   5,C   0,C   1)     -0.1037         0.019670   
     81. D(H   8,C   6,C   0,C   1)    124.1794         0.014460   
     82. D(H   7,C   6,C   0,C   5)     59.0014         0.014460   
     83. D(H   7,C   6,C   0,C   1)   -120.9795         0.014460   
     84. D(H   9,C   6,C   0,C   5)   -178.1680         0.014460   
     85. D(H   9,C   6,C   0,C   1)      1.8511         0.014460   
     86. D(H   8,C   6,C   0,C   5)    -55.8397         0.014460   
     87. D(O  17,O  16,C   3,H  12)   -137.4142         0.001500   
     88. D(O  17,O  16,C   3,C   4)   -138.0005         0.001500   
     89. D(O  17,O  16,C   3,C   2)     42.1161         0.001500   
     90. D(N  15,O  16,C   3,H  12)     17.9126         0.001500   
     91. D(N  15,O  16,C   3,C   4)     17.3264         0.001500   
     92. D(N  15,O  16,C   3,C   2)   -162.5570         0.001500   
    -----------------------------------------------------------------

Number of atoms                         .... 18
Number of degrees of freedom            .... 92

         *************************************************************
         *                GEOMETRY OPTIMIZATION CYCLE   1            *
         *************************************************************
---------------------------------
CARTESIAN COORDINATES (ANGSTROEM)
---------------------------------
  C      0.377596    0.512384    3.038155
  C     -0.272255    1.220659    1.986294
  C     -0.260042    0.724891    0.695112
  C      0.394072   -0.498838    0.413238
  C      1.040166   -1.218850    1.445010
  C      1.035927   -0.721610    2.733570
  C      0.381074    1.031291    4.428233
  H      1.417627    1.187578    4.786677
  H     -0.035149    0.275141    5.122849
  H     -0.182396    1.966500    4.540153
  H     -0.783955    2.157690    2.216333
  H     -0.754237    1.275477   -0.109439
  H      0.399572   -0.886235   -0.610173
  H      1.536715   -2.163813    1.214547
  H      1.540004   -1.266434    3.535618
  N     -1.627596   -2.115321  -11.262466
  O     -1.855216   -1.006255  -11.165976
  O     -2.032791   -0.565192  -12.659476

----------------------------
CARTESIAN COORDINATES (A.U.)
----------------------------
  NO LB      ZA    FRAG     MASS         X           Y           Z
   0 C     6.0000    0    12.011    0.713553    0.968266    5.741280
   1 C     6.0000    0    12.011   -0.514487    2.306710    3.753552
   2 C     6.0000    0    12.011   -0.491408    1.369845    1.313572
   3 C     6.0000    0    12.011    0.744688   -0.942667    0.780907
   4 C     6.0000    0    12.011    1.965629   -2.303293    2.730674
   5 C     6.0000    0    12.011    1.957618   -1.363646    5.165699
   6 C     6.0000    0    12.011    0.720126    1.948857    8.368147
   7 H     1.0000    0     1.008    2.678928    2.244196    9.045509
   8 H     1.0000    0     1.008   -0.066422    0.519941    9.680782
   9 H     1.0000    0     1.008   -0.344678    3.716146    8.579647
  10 H     1.0000    0     1.008   -1.481460    4.077443    4.188262
  11 H     1.0000    0     1.008   -1.425302    2.410302   -0.206810
  12 H     1.0000    0     1.008    0.755082   -1.674741   -1.153060
  13 H     1.0000    0     1.008    2.903971   -4.089015    2.295161
  14 H     1.0000    0     1.008    2.910186   -2.393214    6.681350
  15 N     7.0000    0    14.007   -3.075710   -3.997378  -21.282976
  16 O     8.0000    0    15.999   -3.505849   -1.901546  -21.100637
  17 O     8.0000    0    15.999   -3.841418   -1.068059  -23.922943

--------------------------------
INTERNAL COORDINATES (ANGSTROEM)
--------------------------------
 C      0   0   0     0.000000000000     0.00000000     0.00000000
 C      1   0   0     1.424910110003     0.00000000     0.00000000
 C      2   1   0     1.383143274075   120.45892008     0.00000000
 C      3   2   1     1.415920256086   119.98022212     0.40824385
 C      4   3   2     1.414357741768   120.38329940   359.84010772
 C      5   4   3     1.381178027173   119.72951050   359.77851637
 C      1   2   3     1.483776803869   121.25268200   179.70120535
 H      7   1   2     1.107858455336   110.77164768   239.02050340
 H      7   1   2     1.107924214498   110.35279285   124.17935999
 H      7   1   2     1.097561239107   113.09883755     1.85110445
 H      2   1   3     1.092145867968   118.99031479   179.69492064
 H      3   2   1     1.093013183149   120.17201969   180.41558135
 H      4   3   2     1.094293080401   119.63444855   179.95218502
 H      5   4   3     1.092076060017   119.62053194   179.70482705
 H      6   5   4     1.092798011922   120.25311530   180.54018952
 N     13   4   3    10.912900907419   162.14402186   353.49313778
 O     16  13   4     1.136287461413    81.04802527    23.46308360
 O     17  16  13     1.567357752486   102.50026046   171.24032241

---------------------------
INTERNAL COORDINATES (A.U.)
---------------------------
 C      0   0   0     0.000000000000     0.00000000     0.00000000
 C      1   0   0     2.692689873362     0.00000000     0.00000000
 C      2   1   0     2.613761991977   120.45892008     0.00000000
 C      3   2   1     2.675701511475   119.98022212     0.40824385
 C      4   3   2     2.672748787334   120.38329940   359.84010772
 C      5   4   3     2.610048213547   119.72951050   359.77851637
 C      1   2   3     2.803931803176   121.25268200   179.70120535
 H      7   1   2     2.093549075734   110.77164768   239.02050340
 H      7   1   2     2.093673342542   110.35279285   124.17935999
 H      7   1   2     2.074090157119   113.09883755     1.85110445
 H      2   1   3     2.063856588754   118.99031479   179.69492064
 H      3   2   1     2.065495576918   120.17201969   180.41558135
 H      4   3   2     2.067914232203   119.63444855   179.95218502
 H      5   4   3     2.063724670843   119.62053194   179.70482705
 H      6   5   4     2.065088962226   120.25311530   180.54018952
 N     13   4   3    20.622394041643   162.14402186   353.49313778
 O     16  13   4     2.147272111480    81.04802527    23.46308360
 O     17  16  13     2.961876906076   102.50026046   171.24032241

---------------------
BASIS SET INFORMATION
---------------------
There are 4 groups of distinct atoms

 Group   1 Type C   : 7s4p1d contracted to 3s2p1d pattern {511/31/1}
 Group   2 Type H   : 4s1p contracted to 2s1p pattern {31/1}
 Group   3 Type N   : 7s4p1d contracted to 3s2p1d pattern {511/31/1}
 Group   4 Type O   : 7s4p1d contracted to 3s2p1d pattern {511/31/1}

Atom   0C    basis set group =>   1
Atom   1C    basis set group =>   1
Atom   2C    basis set group =>   1
Atom   3C    basis set group =>   1
Atom   4C    basis set group =>   1
Atom   5C    basis set group =>   1
Atom   6C    basis set group =>   1
Atom   7H    basis set group =>   2
Atom   8H    basis set group =>   2
Atom   9H    basis set group =>   2
Atom  10H    basis set group =>   2
Atom  11H    basis set group =>   2
Atom  12H    basis set group =>   2
Atom  13H    basis set group =>   2
Atom  14H    basis set group =>   2
Atom  15N    basis set group =>   3
Atom  16O    basis set group =>   4
Atom  17O    basis set group =>   4
---------------------------------
AUXILIARY/J BASIS SET INFORMATION
---------------------------------
There are 4 groups of distinct atoms

 Group   1 Type C   : 12s5p4d2f1g contracted to 6s4p3d1f1g pattern {711111/2111/211/2/1}
 Group   2 Type H   : 5s2p1d contracted to 3s1p1d pattern {311/2/1}
 Group   3 Type N   : 12s5p4d2f1g contracted to 6s4p3d1f1g pattern {711111/2111/211/2/1}
 Group   4 Type O   : 12s5p4d2f1g contracted to 6s4p3d1f1g pattern {711111/2111/211/2/1}

Atom   0C    basis set group =>   1
Atom   1C    basis set group =>   1
Atom   2C    basis set group =>   1
Atom   3C    basis set group =>   1
Atom   4C    basis set group =>   1
Atom   5C    basis set group =>   1
Atom   6C    basis set group =>   1
Atom   7H    basis set group =>   2
Atom   8H    basis set group =>   2
Atom   9H    basis set group =>   2
Atom  10H    basis set group =>   2
Atom  11H    basis set group =>   2
Atom  12H    basis set group =>   2
Atom  13H    basis set group =>   2
Atom  14H    basis set group =>   2
Atom  15N    basis set group =>   3
Atom  16O    basis set group =>   4
Atom  17O    basis set group =>   4
------------------------------------------------------------------------------
                           ORCA GTO INTEGRAL CALCULATION
                           -- RI-GTO INTEGRALS CHOSEN --
------------------------------------------------------------------------------
------------------------------------------------------------------------------
                   ___                                                        
                  /   \      - P O W E R E D   B Y -                         
                 /     \                                                     
                 |  |  |   _    _      __       _____    __    __             
                 |  |  |  | |  | |    /  \     |  _  \  |  |  /  |          
                  \  \/   | |  | |   /    \    | | | |  |  | /  /          
                 / \  \   | |__| |  /  /\  \   | |_| |  |  |/  /          
                |  |  |   |  __  | /  /__\  \  |    /   |      \           
                |  |  |   | |  | | |   __   |  |    \   |  |\   \          
                \     /   | |  | | |  |  |  |  | |\  \  |  | \   \       
                 \___/    |_|  |_| |__|  |__|  |_| \__\ |__|  \__/        
                                                                              
                      - O R C A' S   B I G   F R I E N D -                    
                                      &                                       
                       - I N T E G R A L  F E E D E R -                       
                                                                              
 v1 FN, 2020, v2 2021                                                         
------------------------------------------------------------------------------


Reading SHARK input file educts_optfreq_4.SHARKINP.tmp ... ok
----------------------
SHARK INTEGRAL PACKAGE
----------------------

Number of atoms                             ...     18
Number of basis functions                   ...    180
Number of shells                            ...     84
Maximum angular momentum                    ...      2
Integral batch strategy                     ... SHARK/LIBINT Hybrid
RI-J (if used) integral strategy            ... SPLIT-RIJ (Revised 2003 algorithm where possible)
Printlevel                                  ...      1
Contraction scheme used                     ... SEGMENTED contraction
Coulomb Range Separation                    ... NOT USED
Exchange Range Separation                   ... NOT USED
Finite Nucleus Model                        ... NOT USED
Auxiliary Coulomb fitting basis             ... AVAILABLE
   # of basis functions in Aux-J            ...    578
   # of shells in Aux-J                     ...    190
   Maximum angular momentum in Aux-J        ...      4
Auxiliary J/K fitting basis                 ... NOT available
Auxiliary Correlation fitting basis         ... NOT available
Auxiliary 'external' fitting basis          ... NOT available
Integral threshold                          ...     2.500000e-11
Primitive cut-off                           ...     2.500000e-12
Primitive pair pre-selection threshold      ...     2.500000e-12

Calculating pre-screening integrals         ... done (  0.1 sec) Dimension = 84
Organizing shell pair data                  ... done (  0.1 sec)
Shell pair information
Total number of shell pairs                 ...      3570
Shell pairs after pre-screening             ...      2298
Total number of primitive shell pairs       ...     13034
Primitive shell pairs kept                  ...      6347
          la=0 lb=0:    720 shell pairs
          la=1 lb=0:    835 shell pairs
          la=1 lb=1:    262 shell pairs
          la=2 lb=0:    279 shell pairs
          la=2 lb=1:    168 shell pairs
          la=2 lb=2:     34 shell pairs

Calculating one electron integrals          ... done (  0.0 sec)
Calculating RI/J V-Matrix + Cholesky decomp.... done (  0.1 sec)
Calculating Nuclear repulsion               ... done (  0.0 sec) ENN=    372.642807766611 Eh

SHARK setup successfully completed in   0.6 seconds

Maximum memory used throughout the entire GTOINT-calculation: 19.3 MB
-------------------------------------------------------------------------------
                                 ORCA SCF
-------------------------------------------------------------------------------

------------
SCF SETTINGS
------------
Hamiltonian:
 Density Functional     Method          .... DFT(GTOs)
 Exchange Functional    Exchange        .... B88
   X-Alpha parameter    XAlpha          ....  0.666667
   Becke's b parameter  XBeta           ....  0.004200
 Correlation Functional Correlation     .... LYP
 LDA part of GGA corr.  LDAOpt          .... VWN-5
 Gradients option       PostSCFGGA      .... off
 Hybrid DFT is turned on
   Fraction HF Exchange ScalHFX         ....  0.200000
   Scaling of DF-GGA-X  ScalDFX         ....  0.720000
   Scaling of DF-GGA-C  ScalDFC         ....  0.810000
   Scaling of DF-LDA-C  ScalLDAC        ....  1.000000
   Perturbative correction              ....  0.000000
   Density functional embedding theory  .... OFF
   NL short-range parameter             ....  4.800000
 RI-approximation to the Coulomb term is turned on
   Number of AuxJ basis functions       .... 578
   RIJ-COSX (HFX calculated with COS-X)).... on


General Settings:
 Integral files         IntName         .... educts_optfreq_4
 Hartree-Fock type      HFTyp           .... RHF
 Total Charge           Charge          ....    1
 Multiplicity           Mult            ....    1
 Number of Electrons    NEL             ....   72
 Basis Dimension        Dim             ....  180
 Nuclear Repulsion      ENuc            ....    372.6428077666 Eh

Convergence Acceleration:
 DIIS                   CNVDIIS         .... on
   Start iteration      DIISMaxIt       ....    12
   Startup error        DIISStart       ....  0.200000
   # of expansion vecs  DIISMaxEq       ....     5
   Bias factor          DIISBfac        ....   1.050
   Max. coefficient     DIISMaxC        ....  10.000
 Trust-Rad. Augm. Hess. CNVTRAH         .... auto
   Auto Start mean grad. ratio tolernc. ....  1.125000
   Auto Start start iteration           ....    20
   Auto Start num. interpolation iter.  ....    10
   Max. Number of Micro iterations      ....    16
   Max. Number of Macro iterations      .... Maxiter - #DIIS iter
   Number of Davidson start vectors     ....     2
   Converg. threshold I  (grad. norm)   ....   1.000e-05
   Converg. threshold II (energy diff.) ....   1.000e-08
   Grad. Scal. Fac. for Micro threshold ....   0.100
   Minimum threshold for Micro iter.    ....   0.010
   NR start threshold (gradient norm)   ....   0.001
   Initial trust radius                 ....   0.400
   Minimum AH scaling param. (alpha)    ....   1.000
   Maximum AH scaling param. (alpha)    .... 1000.000
   Orbital update algorithm             .... Taylor
   White noise on init. David. guess    .... on
   Maximum white noise                  ....   0.010
   Quad. conv. algorithm                .... NR
 SOSCF                  CNVSOSCF        .... on
   Start iteration      SOSCFMaxIt      ....   150
   Startup grad/error   SOSCFStart      ....  0.003300
 Level Shifting         CNVShift        .... on
   Level shift para.    LevelShift      ....    0.2500
   Turn off err/grad.   ShiftErr        ....    0.0010
 Zerner damping         CNVZerner       .... off
 Static damping         CNVDamp         .... on
   Fraction old density DampFac         ....    0.7000
   Max. Damping (<1)    DampMax         ....    0.9800
   Min. Damping (>=0)   DampMin         ....    0.0000
   Turn off err/grad.   DampErr         ....    0.1000
 Fernandez-Rico         CNVRico         .... off

SCF Procedure:
 Maximum # iterations   MaxIter         ....   125
 SCF integral mode      SCFMode         .... Direct
   Integral package                     .... SHARK and LIBINT hybrid scheme
 Reset frequency        DirectResetFreq ....    20
 Integral Threshold     Thresh          ....  2.500e-11 Eh
 Primitive CutOff       TCut            ....  2.500e-12 Eh

Convergence Tolerance:
 Convergence Check Mode ConvCheckMode   .... Total+1el-Energy
 Convergence forced     ConvForced      .... 0
 Energy Change          TolE            ....  1.000e-08 Eh
 1-El. energy change                    ....  1.000e-05 Eh
 Orbital Gradient       TolG            ....  1.000e-05
 Orbital Rotation angle TolX            ....  1.000e-05
 DIIS Error             TolErr          ....  5.000e-07


Diagonalization of the overlap matrix:
Smallest eigenvalue                        ... 3.217e-04
Time for diagonalization                   ...    0.013 sec
Threshold for overlap eigenvalues          ... 1.000e-08
Number of eigenvalues below threshold      ... 0
Time for construction of square roots      ...    0.020 sec
Total time needed                          ...    0.033 sec

Time for model grid setup =    0.824 sec

------------------------------
INITIAL GUESS: MODEL POTENTIAL
------------------------------
Loading Hartree-Fock densities                     ... done
Calculating cut-offs                               ... done
Initializing the effective Hamiltonian             ... done
Setting up the integral package (SHARK)            ... done
Starting the Coulomb interaction                   ... done (   0.6 sec)
Reading the grid                                   ... done
Mapping shells                                     ... done
Starting the XC term evaluation                    ... done (   1.1 sec)
  promolecular density results
     # of electrons  =     72.993083029
     EX              =    -61.141568469
     EC              =     -2.458367932
     EX+EC           =    -63.599936401
Transforming the Hamiltonian                       ... done (   0.0 sec)
Diagonalizing the Hamiltonian                      ... done (   0.0 sec)
Back transforming the eigenvectors                 ... done (   0.0 sec)
Now organizing SCF variables                       ... done
                      ------------------
                      INITIAL GUESS DONE (   2.6 sec)
                      ------------------
-------------------
DFT GRID GENERATION
-------------------

General Integration Accuracy     IntAcc      ... 4.388
Radial Grid Type                 RadialGrid  ... OptM3 with GC (2021)
Angular Grid (max. ang.)         AngularGrid ... 4 (Lebedev-302)
Angular grid pruning method      GridPruning ... 4 (adaptive)
Weight generation scheme         WeightScheme... Becke
Basis function cutoff            BFCut       ... 1.0000e-11
Integration weight cutoff        WCut        ... 1.0000e-14
Angular grids for H and He will be reduced by one unit
Partially contracted basis set               ... off
Rotationally invariant grid construction     ... off

Total number of grid points                  ...    86373
Total number of batches                      ...     1359
Average number of points per batch           ...       63
Average number of grid points per atom       ...     4799
Time for grid setup =    4.993 sec

--------------------
COSX GRID GENERATION
--------------------

GRIDX 1
-------
General Integration Accuracy     IntAcc      ... 3.816
Radial Grid Type                 RadialGrid  ... OptM3 with GC (2021)
Angular Grid (max. ang.)         AngularGrid ... 1 (Lebedev-50)
Angular grid pruning method      GridPruning ... 4 (adaptive)
Weight generation scheme         WeightScheme... Becke
Basis function cutoff            BFCut       ... 1.0000e-11
Integration weight cutoff        WCut        ... 1.0000e-14
Angular grids for H and He will be reduced by one unit
Partially contracted basis set               ... on
Rotationally invariant grid construction     ... off

Total number of grid points                  ...    11049
Total number of batches                      ...      179
Average number of points per batch           ...       61
Average number of grid points per atom       ...      614
UseSFitting                                  ... on

GRIDX 2
-------
General Integration Accuracy     IntAcc      ... 4.020
Radial Grid Type                 RadialGrid  ... OptM3 with GC (2021)
Angular Grid (max. ang.)         AngularGrid ... 2 (Lebedev-110)
Angular grid pruning method      GridPruning ... 4 (adaptive)
Weight generation scheme         WeightScheme... Becke
Basis function cutoff            BFCut       ... 1.0000e-11
Integration weight cutoff        WCut        ... 1.0000e-14
Angular grids for H and He will be reduced by one unit
Partially contracted basis set               ... on
Rotationally invariant grid construction     ... off

Total number of grid points                  ...    24467
Total number of batches                      ...      392
Average number of points per batch           ...       62
Average number of grid points per atom       ...     1359
UseSFitting                                  ... on

GRIDX 3
-------
General Integration Accuracy     IntAcc      ... 4.338
Radial Grid Type                 RadialGrid  ... OptM3 with GC (2021)
Angular Grid (max. ang.)         AngularGrid ... 3 (Lebedev-194)
Angular grid pruning method      GridPruning ... 4 (adaptive)
Weight generation scheme         WeightScheme... Becke
Basis function cutoff            BFCut       ... 1.0000e-11
Integration weight cutoff        WCut        ... 1.0000e-14
Angular grids for H and He will be reduced by one unit
Partially contracted basis set               ... on
Rotationally invariant grid construction     ... off

Total number of grid points                  ...    53790
Total number of batches                      ...      849
Average number of points per batch           ...       63
Average number of grid points per atom       ...     2988
UseSFitting                                  ... on

Time for X-Grid setup             =    5.813 sec

--------------
SCF ITERATIONS
--------------
ITER       Energy         Delta-E        Max-DP      RMS-DP      [F,P]     Damp
               ***  Starting incremental Fock matrix formation  ***
  0   -475.0803698241   0.000000000000 0.33159339  0.00481324  0.3113441 0.7000
  1   -475.2237445191  -0.143374694958 0.09399203  0.00174812  0.1017651 0.7000
                               ***Turning on DIIS***
  2   -475.3664473297  -0.142702810616 0.17243155  0.00378871  0.0433956 0.0000
  3   -475.3603975179   0.006049811757 0.04337627  0.00084765  0.0974612 0.0000
  4   -475.3911794962  -0.030781978321 0.03400779  0.00074793  0.0839932 0.0000
  5   -475.4062487567  -0.015069260463 0.06171813  0.00098846  0.0546317 0.0000
  6   -475.4185284265  -0.012279669803 0.56593951  0.00845189  0.0297450 0.0000
  7   -474.8071918402   0.611336586323 0.00320642  0.00008640  0.3071604 0.7000
  8   -474.8017200794   0.005471760757 0.00294865  0.00008510  0.3103626 0.7000
  9   -474.7971130776   0.004607001863 0.00631934  0.00009996  0.3119351 0.7000
 10   -474.8030453155  -0.005932237899 0.00578957  0.00008867  0.3053880 0.7000
 11   -474.8078165684  -0.004771252950 0.28012493  0.00583503  0.3013821 0.7000
 12   -474.9740076512  -0.166191082771 0.16319197  0.00245443  0.2075760 0.7000
 13   -475.1084312090  -0.134423557830 0.33250453  0.00529310  0.0690273 0.0000
 14   -475.2491741088  -0.140742899808 0.00971613  0.00023102  0.1933245 0.7000
 15   -475.2675090955  -0.018334986713 0.01115148  0.00027604  0.1808224 0.7000
 16   -475.2879971574  -0.020488061876 0.17399547  0.00270621  0.1660947 0.7000
 17   -475.4026914412  -0.114694283756 0.13247168  0.00182898  0.2099131 0.7000
 18   -475.3713206200   0.031370821127 0.15421907  0.00201652  0.2154330 0.7000
 19   -475.3347168679   0.036603752182 0.07948089  0.00124894  0.1040337 0.7000
               *** Restarting incremental Fock matrix formation ***
                                   *** Resetting DIIS ***

 WARNING: the maximum gradient error descreased on average only by a factor   1.0
          during the last 20 iterations

                      *** Initiating the TRAH-SCF procedure ***


TRAH GRIDX
----------

General Integration Accuracy     IntAcc      ... 3.067
Radial Grid Type                 RadialGrid  ... OptM3 with GC (2021)
Angular Grid (max. ang.)         AngularGrid ... 1 (Lebedev-50)
Angular grid pruning method      GridPruning ... 4 (adaptive)
Weight generation scheme         WeightScheme... Becke
Basis function cutoff            BFCut       ... 1.0000e-11
Integration weight cutoff        WCut        ... 1.0000e-14
Angular grids for H and He will be reduced by one unit
Partially contracted basis set               ... on
Rotationally invariant grid construction     ... off

Total number of grid points                  ...     5831
Total number of batches                      ...      102
Average number of points per batch           ...       57
Average number of grid points per atom       ...      324


TRAH GRID
---------

General Integration Accuracy     IntAcc      ... 3.467
Radial Grid Type                 RadialGrid  ... OptM3 with GC (2021)
Angular Grid (max. ang.)         AngularGrid ... 1 (Lebedev-50)
Angular grid pruning method      GridPruning ... 4 (adaptive)
Weight generation scheme         WeightScheme... Becke
Basis function cutoff            BFCut       ... 1.0000e-11
Integration weight cutoff        WCut        ... 1.0000e-14
Angular grids for H and He will be reduced by one unit
Partially contracted basis set               ... off
Rotationally invariant grid construction     ... off

Total number of grid points                  ...    12743
Total number of batches                      ...      209
Average number of points per batch           ...       60
Average number of grid points per atom       ...      708

 --------------------------------------------------------------------------------------------
   Iter.        energy            ||Error||_2        Shift      TRadius  Mac/Mic        Rej.
 --------------------------------------------------------------------------------------------
WARNING: 99 diagonal Hessian elements are negative!
    0       -474.907339674542     1.722636e+00                     0.400 (TRAH MAcro)   No
WARNING : negative HOMO - LUMO gap : -0.877583
    0     dE    -1.538091e-01     8.119883e-01    -2.9861e-01      0.174 (TRAH MIcro)
    0     dE    -2.242377e-01     3.012567e+00    -4.8405e-01      0.400 (TRAH MIcro)
    0     dE    -1.472167e-01     2.832862e-01    -5.0834e+00      0.128 (TRAH MIcro)
    0     dE    -1.483836e-01     1.438172e-01    -5.1163e+00      0.128 (TRAH MIcro)
    0     dE    -1.489759e-01     2.642168e-02    -5.1329e+00      0.128 (TRAH MIcro)
    0     dE    -1.489444e-01     2.792190e-03    -5.1335e+00      0.128 (TRAH MIcro)
WARNING: 80 diagonal Hessian elements are negative!
    1       -475.056144736022     6.571044e-01                     0.480 (TRAH MAcro)   No
WARNING : negative HOMO - LUMO gap : -0.711955
    1     dE    -2.746333e-02     2.738298e-01    -5.4551e-02      0.083 (TRAH MIcro)
    1     dE    -3.593905e-02     2.442590e-01    -7.0553e-02      0.137 (TRAH MIcro)
    1     dE    -1.251314e-01     3.491452e+00    -7.3703e-01      0.480 (TRAH MIcro)
    1     dE    -2.929300e-02     6.826726e-02    -3.2990e+00      0.070 (TRAH MIcro)
    1     dE    -2.956286e-02     1.848991e-02    -3.3277e+00      0.070 (TRAH MIcro)
    1     dE    -2.958318e-02     3.052815e-03    -3.3292e+00      0.070 (TRAH MIcro)
WARNING: 67 diagonal Hessian elements are negative!
    2       -475.085824210767     2.370100e-01                     0.576 (TRAH MAcro)   No
WARNING : negative HOMO - LUMO gap : -0.651288
    2     dE    -5.227710e-03     1.451261e-01    -1.0435e-02      0.044 (TRAH MIcro)
    2     dE    -8.102279e-03     1.264392e-01    -1.6084e-02      0.086 (TRAH MIcro)
    2     dE    -1.851020e-02     1.416326e+00    -4.3036e-01      0.211 (TRAH MIcro)
    2     dE    -4.346049e-03     3.067059e-02    -5.6583e+00      0.024 (TRAH MIcro)
    2     dE    -4.421219e-03     4.359258e-03    -5.7182e+00      0.024 (TRAH MIcro)
WARNING: 65 diagonal Hessian elements are negative!
    3       -475.090251553824     1.389077e-01                     0.691 (TRAH MAcro)   No
WARNING : negative HOMO - LUMO gap : -0.638126
    3     dE    -2.627694e-03     1.014748e-01    -5.2479e-03      0.038 (TRAH MIcro)
    3     dE    -4.220490e-03     5.957591e-02    -8.3949e-03      0.074 (TRAH MIcro)
    3     dE    -2.760428e-02     5.413722e+00    -7.8382e-02      0.691 (TRAH MIcro)
    3     dE    -2.437710e-03     2.006633e-02    -3.2148e+00      0.024 (TRAH MIcro)
    3     dE    -2.466693e-03     4.055016e-03    -3.2494e+00      0.024 (TRAH MIcro)
WARNING: 65 diagonal Hessian elements are negative!
    4       -475.092723516728     7.731426e-02                     0.829 (TRAH MAcro)   No
WARNING : negative HOMO - LUMO gap : -0.631234
    4     dE    -1.273157e-03     6.127885e-02    -2.5436e-03      0.033 (TRAH MIcro)
    4     dE    -1.980142e-03     9.874031e-02    -3.9457e-03      0.061 (TRAH MIcro)
    4     dE    -2.714481e-02     1.230043e+00    -9.6426e-01      0.230 (TRAH MIcro)
    4     dE    -8.375627e-04     9.525625e-03    -3.9841e+00      0.013 (TRAH MIcro)
    4     dE    -8.439139e-04     1.760144e-03    -4.0051e+00      0.013 (TRAH MIcro)
WARNING: 65 diagonal Hessian elements are negative!
    5       -475.093568342399     5.289724e-02                     0.995 (TRAH MAcro)   No
WARNING : negative HOMO - LUMO gap : -0.629368
    5     dE    -8.086377e-04     5.142201e-02    -1.6158e-03      0.031 (TRAH MIcro)
    5     dE    -1.435180e-03     3.067861e-01    -2.8551e-03      0.073 (TRAH MIcro)
    5     dE    -1.488421e-01     1.112520e+00    -1.9516e+00      0.389 (TRAH MIcro)
    5     dE    -5.850564e-04     9.072176e-03    -2.6997e+00      0.014 (TRAH MIcro)
    5     dE    -5.905299e-04     1.778999e-03    -2.7099e+00      0.014 (TRAH MIcro)
WARNING: 64 diagonal Hessian elements are negative!
    6       -475.094159685717     3.730255e-02                     1.194 (TRAH MAcro)   No
WARNING : negative HOMO - LUMO gap : -0.628629
    6     dE    -2.735976e-03     1.259281e+00    -5.3159e-03      0.171 (TRAH MIcro)
    6     dE    -4.168882e-01     1.081582e+00    -2.3041e+00      0.599 (TRAH MIcro)
    6     dE    -7.234570e-01     1.939947e-01    -2.5499e+00      0.751 (TRAH MIcro)
    6     dE    -7.637711e-01     5.004271e-02    -2.5583e+00      0.770 (TRAH MIcro)
    6     dE    -7.676099e-01     1.397346e-02    -2.5588e+00      0.772 (TRAH MIcro)
    6     dE    -7.696082e-01     8.492946e-03    -2.5589e+00      0.773 (TRAH MIcro)
    6     dE    -7.732792e-01     9.566795e-03    -2.5589e+00      0.775 (TRAH MIcro)
    6     dE    -7.750281e-01     3.796311e-03    -2.5590e+00      0.776 (TRAH MIcro)
    6     dE    -7.750584e-01     1.088492e-03    -2.5590e+00      0.776 (TRAH MIcro)
WARNING: 1 diagonal Hessian elements are negative!
    7       -475.419597210777     1.095301e+00                     1.194 (TRAH MAcro)   No
WARNING : negative HOMO - LUMO gap : -0.006769
    7     dE    -7.002097e-02     9.120309e-01    -1.3752e-01      0.135 (TRAH MIcro)
    7     dE    -9.899987e-02     3.446761e-01    -1.8710e-01      0.241 (TRAH MIcro)
    7     dE    -1.026998e-01     1.874201e-01    -1.9325e-01      0.251 (TRAH MIcro)
    7     dE    -1.044447e-01     4.956705e-02    -1.9622e-01      0.254 (TRAH MIcro)
    7     dE    -1.046860e-01     3.429997e-02    -1.9651e-01      0.256 (TRAH MIcro)
    7     dE    -1.048993e-01     1.094982e-02    -1.9664e-01      0.259 (TRAH MIcro)
    7     dE    -1.049368e-01     3.987693e-03    -1.9666e-01      0.259 (TRAH MIcro)
    8       -475.523318080363     5.826891e-02                     1.433 (TRAH MAcro)   No
WARNING : small    HOMO - LUMO gap : 0.011538
    8     dE    -4.696169e-04     9.197489e-02    -9.3897e-04      0.017 (TRAH MIcro)
    8     dE    -5.822815e-04     7.225157e-02    -1.1640e-03      0.023 (TRAH MIcro)
    8     dE    -9.043543e-04     4.373692e-02    -1.8061e-03      0.038 (TRAH MIcro)
    8     dE    -1.037194e-03     2.867302e-02    -2.0694e-03      0.049 (TRAH MIcro)
    8     dE    -1.105653e-03     1.761083e-02    -2.2041e-03      0.057 (TRAH MIcro)
    8     dE    -1.128349e-03     9.235840e-03    -2.2479e-03      0.063 (TRAH MIcro)
    8     dE    -1.134833e-03     2.420644e-03    -2.2600e-03      0.065 (TRAH MIcro)
    9       -475.524446696427     9.504528e-03                     1.720 (TRAH MAcro)   No
WARNING : small    HOMO - LUMO gap : 0.007282
    9     dE    -4.447159e-06     6.174165e-03    -8.8943e-06      0.001 (TRAH MIcro)
    9     dE    -6.502801e-06     2.255646e-03    -1.3006e-05      0.002 (TRAH MIcro)
    9     dE    -6.553726e-06     2.037257e-03    -1.3107e-05      0.002 (TRAH MIcro)
    9     dE    -6.873515e-06     1.107885e-03    -1.3747e-05      0.002 (TRAH MIcro)
    9     dE    -6.959933e-06     4.615154e-04    -1.3920e-05      0.003 (TRAH MIcro)
   10       -475.524453668071     4.617239e-04                           (NR   MAcro)
WARNING : small    HOMO - LUMO gap : 0.007479
   10     dE    -1.539485e-08     3.301464e-04                           (NR   MIcro)
   10     dE    -2.281816e-08     2.956048e-04                           (NR   MIcro)
   10     dE    -3.145164e-08     1.946370e-04                           (NR   MIcro)
   10     dE    -3.489997e-08     1.719034e-04                           (NR   MIcro)
   10     dE    -3.712768e-08     6.250403e-05                           (NR   MIcro)
   10     dE    -3.730096e-08     2.423886e-05                           (NR   MIcro)
   10     dE    -3.732512e-08     4.136595e-06                           (NR   MIcro)
   10     dE    -3.732664e-08     2.100097e-06                           (NR   MIcro)
   11       -475.524453705186     2.430748e-06                           (NR   MAcro)
WARNING : small    HOMO - LUMO gap : 0.007480
   11     dE    -6.969227e-14     2.181167e-06                           (NR   MIcro)
   11     dE    -4.352440e-13     1.262396e-06                           (NR   MIcro)
   11     dE    -5.951923e-13     8.930994e-07                           (NR   MIcro)
   12       -475.524453705182     8.929697e-07                           (NR   MAcro)
WARNING : small    HOMO - LUMO gap : 0.007480

               *****************************************************
               *                     SUCCESS                       *
               *           SCF CONVERGED AFTER 104 CYCLES          *
               *****************************************************

Old exchange energy                            =    -12.243697660 Eh
New exchange energy                            =    -12.243755822 Eh
Exchange energy change after final integration =     -0.000058163 Eh
Total energy after final integration           =   -475.524511868 Eh
Final COS-X integration done in                =    32.760 sec

----------------
TOTAL SCF ENERGY
----------------

Total Energy       :         -475.52451187 Eh          -12939.67981 eV

Components:
Nuclear Repulsion  :          372.64280777 Eh           10140.12631 eV
Electronic Energy  :         -848.16731963 Eh          -23079.80612 eV
One Electron Energy:        -1371.36541385 Eh          -37316.75006 eV
Two Electron Energy:          523.19809422 Eh           14236.94394 eV
Max COSX asymmetry :            0.00000200 Eh               0.00005 eV

Virial components:
Potential Energy   :         -947.03811777 Eh          -25770.21732 eV
Kinetic Energy     :          471.51360590 Eh           12830.53751 eV
Virial Ratio       :            2.00850645


DFT components:
N(Alpha)           :       36.000009825363 electrons
N(Beta)            :       36.000009825363 electrons
N(Total)           :       72.000019650726 electrons
E(X)               :      -48.892508643147 Eh       
E(C)               :       -2.868858804792 Eh       
E(XC)              :      -51.761367447939 Eh       
DFET-embed. en.    :        0.000000000000 Eh       

---------------
SCF CONVERGENCE
---------------

  Last Energy change         ...    3.8085e-12  Tolerance :   1.0000e-08
  Last Orbital Gradient      ...    8.9297e-07  Tolerance :   1.0000e-05
  Last Orbital Rotation      ...    1.1971e-06

             **** THE GBW FILE WAS UPDATED (educts_optfreq_4.gbw) ****
             **** DENSITY educts_optfreq_4.scfp WAS UPDATED ****
             **** ENERGY FILE WAS UPDATED (educts_optfreq_4.en.tmp) ****
             **** THE GBW FILE WAS UPDATED (educts_optfreq_4.gbw) ****
             **** DENSITY educts_optfreq_4.scfp WAS UPDATED ****
----------------
ORBITAL ENERGIES
----------------

  NO   OCC          E(Eh)            E(eV) 
   0   2.0000     -19.541613      -531.7543 
   1   2.0000     -19.346706      -526.4506 
   2   2.0000     -14.680953      -399.4890 
   3   2.0000     -10.371532      -282.2237 
   4   2.0000     -10.360791      -281.9314 
   5   2.0000     -10.343776      -281.4685 
   6   2.0000     -10.342949      -281.4459 
   7   2.0000     -10.341061      -281.3946 
   8   2.0000     -10.340582      -281.3816 
   9   2.0000     -10.321078      -280.8508 
  10   2.0000      -1.492247       -40.6061 
  11   2.0000      -1.077491       -29.3200 
  12   2.0000      -1.002165       -27.2703 
  13   2.0000      -0.914755       -24.8917 
  14   2.0000      -0.889811       -24.2130 
  15   2.0000      -0.863026       -23.4841 
  16   2.0000      -0.820769       -22.3343 
  17   2.0000      -0.747484       -20.3401 
  18   2.0000      -0.741816       -20.1858 
  19   2.0000      -0.730395       -19.8751 
  20   2.0000      -0.725968       -19.7546 
  21   2.0000      -0.675612       -18.3843 
  22   2.0000      -0.654364       -17.8061 
  23   2.0000      -0.613058       -16.6822 
  24   2.0000      -0.593445       -16.1485 
  25   2.0000      -0.569575       -15.4989 
  26   2.0000      -0.556235       -15.1359 
  27   2.0000      -0.555538       -15.1170 
  28   2.0000      -0.522448       -14.2165 
  29   2.0000      -0.498670       -13.5695 
  30   2.0000      -0.496359       -13.5066 
  31   2.0000      -0.485485       -13.2107 
  32   2.0000      -0.456754       -12.4289 
  33   2.0000      -0.448129       -12.1942 
  34   2.0000      -0.406604       -11.0643 
  35   2.0000      -0.379497       -10.3266 
  36   0.0000      -0.372017       -10.1231 
  37   0.0000      -0.295102        -8.0301 
  38   0.0000      -0.202484        -5.5099 
  39   0.0000      -0.164118        -4.4659 
  40   0.0000      -0.151338        -4.1181 
  41   0.0000      -0.058469        -1.5910 
  42   0.0000      -0.034504        -0.9389 
  43   0.0000      -0.024440        -0.6650 
  44   0.0000      -0.016174        -0.4401 
  45   0.0000       0.000256         0.0070 
  46   0.0000       0.015226         0.4143 
  47   0.0000       0.030529         0.8307 
  48   0.0000       0.041879         1.1396 
  49   0.0000       0.044808         1.2193 
  50   0.0000       0.092527         2.5178 
  51   0.0000       0.144444         3.9305 
  52   0.0000       0.155518         4.2319 
  53   0.0000       0.157293         4.2802 
  54   0.0000       0.175907         4.7867 
  55   0.0000       0.181748         4.9456 
  56   0.0000       0.217103         5.9077 
  57   0.0000       0.255374         6.9491 
  58   0.0000       0.277752         7.5580 
  59   0.0000       0.281325         7.6552 
  60   0.0000       0.295983         8.0541 
  61   0.0000       0.306070         8.3286 
  62   0.0000       0.312449         8.5022 
  63   0.0000       0.339797         9.2463 
  64   0.0000       0.348641         9.4870 
  65   0.0000       0.357449         9.7267 
  66   0.0000       0.370737        10.0883 
  67   0.0000       0.394817        10.7435 
  68   0.0000       0.398945        10.8559 
  69   0.0000       0.433354        11.7922 
  70   0.0000       0.460522        12.5314 
  71   0.0000       0.472347        12.8532 
  72   0.0000       0.492792        13.4096 
  73   0.0000       0.500196        13.6110 
  74   0.0000       0.500239        13.6122 
  75   0.0000       0.503172        13.6920 
  76   0.0000       0.513977        13.9860 
  77   0.0000       0.516311        14.0495 
  78   0.0000       0.536780        14.6065 
  79   0.0000       0.541481        14.7344 
  80   0.0000       0.543682        14.7944 
  81   0.0000       0.545207        14.8358 
  82   0.0000       0.555971        15.1287 
  83   0.0000       0.564068        15.3491 
  84   0.0000       0.586509        15.9597 
  85   0.0000       0.589892        16.0518 
  86   0.0000       0.598199        16.2778 
  87   0.0000       0.607778        16.5385 
  88   0.0000       0.645111        17.5544 
  89   0.0000       0.652747        17.7621 
  90   0.0000       0.672809        18.3081 
  91   0.0000       0.702804        19.1243 
  92   0.0000       0.720109        19.5952 
  93   0.0000       0.723639        19.6912 
  94   0.0000       0.769895        20.9499 
  95   0.0000       0.826689        22.4954 
  96   0.0000       0.843172        22.9439 
  97   0.0000       0.859844        23.3975 
  98   0.0000       0.909002        24.7352 
  99   0.0000       0.938777        25.5454 
 100   0.0000       0.945946        25.7405 
 101   0.0000       0.987513        26.8716 
 102   0.0000       1.042366        28.3642 
 103   0.0000       1.066211        29.0131 
 104   0.0000       1.093821        29.7644 
 105   0.0000       1.103301        30.0224 
 106   0.0000       1.128360        30.7042 
 107   0.0000       1.132659        30.8212 
 108   0.0000       1.139694        31.0126 
 109   0.0000       1.144975        31.1564 
 110   0.0000       1.159524        31.5523 
 111   0.0000       1.329138        36.1677 
 112   0.0000       1.369267        37.2596 
 113   0.0000       1.384691        37.6794 
 114   0.0000       1.411714        38.4147 
 115   0.0000       1.500984        40.8439 
 116   0.0000       1.536277        41.8042 
 117   0.0000       1.540921        41.9306 
 118   0.0000       1.575735        42.8779 
 119   0.0000       1.585822        43.1524 
 120   0.0000       1.599884        43.5351 
 121   0.0000       1.601874        43.5892 
 122   0.0000       1.620884        44.1065 
 123   0.0000       1.627690        44.2917 
 124   0.0000       1.635325        44.4995 
 125   0.0000       1.662891        45.2496 
 126   0.0000       1.671988        45.4971 
 127   0.0000       1.682301        45.7777 
 128   0.0000       1.683177        45.8016 
 129   0.0000       1.700899        46.2838 
 130   0.0000       1.721272        46.8382 
 131   0.0000       1.767581        48.0983 
 132   0.0000       1.794023        48.8178 
 133   0.0000       1.801662        49.0257 
 134   0.0000       1.835362        49.9428 
 135   0.0000       1.838157        50.0188 
 136   0.0000       1.841541        50.1109 
 137   0.0000       1.878705        51.1222 
 138   0.0000       1.897109        51.6229 
 139   0.0000       1.907603        51.9085 
 140   0.0000       1.969311        53.5877 
 141   0.0000       1.985948        54.0404 
 142   0.0000       1.991630        54.1950 
 143   0.0000       2.021730        55.0141 
 144   0.0000       2.079444        56.5846 
 145   0.0000       2.127520        57.8928 
 146   0.0000       2.136039        58.1246 
 147   0.0000       2.159543        58.7641 
 148   0.0000       2.174696        59.1765 
 149   0.0000       2.189520        59.5799 
 150   0.0000       2.206978        60.0549 
 151   0.0000       2.231688        60.7273 
 152   0.0000       2.301506        62.6272 
 153   0.0000       2.321572        63.1732 
 154   0.0000       2.341853        63.7251 
 155   0.0000       2.437386        66.3246 
 156   0.0000       2.441124        66.4264 
 157   0.0000       2.451021        66.6957 
 158   0.0000       2.457499        66.8719 
 159   0.0000       2.479263        67.4642 
 160   0.0000       2.485685        67.6389 
 161   0.0000       2.486539        67.6622 
 162   0.0000       2.576100        70.0992 
 163   0.0000       2.579296        70.1862 
 164   0.0000       2.591976        70.5313 
 165   0.0000       2.600516        70.7636 
 166   0.0000       2.663169        72.4685 
 167   0.0000       2.686342        73.0991 
 168   0.0000       2.715948        73.9047 
 169   0.0000       2.735923        74.4483 
 170   0.0000       2.795107        76.0587 
 171   0.0000       2.819396        76.7197 
 172   0.0000       2.896573        78.8197 
 173   0.0000       2.980781        81.1112 
 174   0.0000       3.030505        82.4642 
 175   0.0000       3.054989        83.1305 
 176   0.0000       3.095711        84.2386 
 177   0.0000       3.196332        86.9766 
 178   0.0000       3.448694        93.8437 
 179   0.0000       3.494446        95.0887 

                    ********************************
                    * MULLIKEN POPULATION ANALYSIS *
                    ********************************

-----------------------
MULLIKEN ATOMIC CHARGES
-----------------------
   0 C :   -0.038081
   1 C :    0.035019
   2 C :    0.045637
   3 C :    0.068516
   4 C :    0.042439
   5 C :    0.037646
   6 C :    0.062051
   7 H :    0.081278
   8 H :    0.078696
   9 H :    0.054129
  10 H :    0.027909
  11 H :    0.039184
  12 H :    0.049329
  13 H :    0.040646
  14 H :    0.029195
  15 N :    0.267948
  16 O :    0.187287
  17 O :   -0.108829
Sum of atomic charges:    1.0000000

--------------------------------
MULLIKEN REDUCED ORBITAL CHARGES
--------------------------------
  0 C s       :     3.124843  s :     3.124843
      pz      :     1.027720  p :     2.869051
      px      :     0.874321
      py      :     0.967010
      dz2     :     0.011136  d :     0.044187
      dxz     :     0.008483
      dyz     :     0.012085
      dx2y2   :     0.006422
      dxy     :     0.006060
  1 C s       :     3.210827  s :     3.210827
      pz      :     0.924575  p :     2.720934
      px      :     0.922284
      py      :     0.874075
      dz2     :     0.009651  d :     0.033220
      dxz     :     0.006876
      dyz     :     0.009541
      dx2y2   :     0.003134
      dxy     :     0.004019
  2 C s       :     3.175377  s :     3.175377
      pz      :     0.919654  p :     2.744805
      px      :     0.911894
      py      :     0.913257
      dz2     :     0.008722  d :     0.034180
      dxz     :     0.006370
      dyz     :     0.010143
      dx2y2   :     0.004151
      dxy     :     0.004795
  3 C s       :     3.194692  s :     3.194692
      pz      :     0.903933  p :     2.702094
      px      :     0.870657
      py      :     0.927503
      dz2     :     0.008897  d :     0.034698
      dxz     :     0.004837
      dyz     :     0.009357
      dx2y2   :     0.005987
      dxy     :     0.005620
  4 C s       :     3.171744  s :     3.171744
      pz      :     0.944158  p :     2.751684
      px      :     0.921732
      py      :     0.885793
      dz2     :     0.009975  d :     0.034133
      dxz     :     0.006968
      dyz     :     0.009659
      dx2y2   :     0.003419
      dxy     :     0.004112
  5 C s       :     3.218603  s :     3.218603
      pz      :     0.886371  p :     2.710567
      px      :     0.909750
      py      :     0.914447
      dz2     :     0.008600  d :     0.033184
      dxz     :     0.006370
      dyz     :     0.009742
      dx2y2   :     0.003860
      dxy     :     0.004612
  6 C s       :     2.963470  s :     2.963470
      pz      :     0.929918  p :     2.947864
      px      :     1.016345
      py      :     1.001601
      dz2     :     0.007207  d :     0.026614
      dxz     :     0.003717
      dyz     :     0.006454
      dx2y2   :     0.004699
      dxy     :     0.004536
  7 H s       :     0.894347  s :     0.894347
      pz      :     0.005576  p :     0.024375
      px      :     0.013421
      py      :     0.005378
  8 H s       :     0.896972  s :     0.896972
      pz      :     0.008587  p :     0.024332
      px      :     0.006836
      py      :     0.008909
  9 H s       :     0.922671  s :     0.922671
      pz      :     0.003937  p :     0.023200
      px      :     0.007223
      py      :     0.012039
 10 H s       :     0.949102  s :     0.949102
      pz      :     0.003640  p :     0.022989
      px      :     0.006650
      py      :     0.012699
 11 H s       :     0.937895  s :     0.937895
      pz      :     0.010017  p :     0.022921
      px      :     0.006355
      py      :     0.006549
 12 H s       :     0.928028  s :     0.928028
      pz      :     0.014320  p :     0.022643
      px      :     0.003494
      py      :     0.004829
 13 H s       :     0.936362  s :     0.936362
      pz      :     0.003698  p :     0.022992
      px      :     0.006421
      py      :     0.012873
 14 H s       :     0.947821  s :     0.947821
      pz      :     0.009829  p :     0.022983
      px      :     0.006558
      py      :     0.006596
 15 N s       :     3.878962  s :     3.878962
      pz      :     1.083733  p :     2.797524
      px      :     0.761026
      py      :     0.952765
      dz2     :     0.006011  d :     0.055566
      dxz     :     0.000826
      dyz     :     0.014162
      dx2y2   :     0.016838
      dxy     :     0.017730
 16 O s       :     3.816156  s :     3.816156
      pz      :     1.378171  p :     3.953606
      px      :     1.337421
      py      :     1.238014
      dz2     :     0.007068  d :     0.042951
      dxz     :     0.002525
      dyz     :     0.013951
      dx2y2   :     0.009154
      dxy     :     0.010253
 17 O s       :     3.981207  s :     3.981207
      pz      :     0.872925  p :     4.120254
      px      :     1.838096
      py      :     1.409233
      dz2     :     0.004243  d :     0.007368
      dxz     :     0.001027
      dyz     :     0.001728
      dx2y2   :     0.000220
      dxy     :     0.000150


                     *******************************
                     * LOEWDIN POPULATION ANALYSIS *
                     *******************************

----------------------
LOEWDIN ATOMIC CHARGES
----------------------
   0 C :    0.078888
   1 C :    0.014116
   2 C :    0.019403
   3 C :    0.087947
   4 C :    0.010629
   5 C :    0.026364
   6 C :   -0.030900
   7 H :    0.072347
   8 H :    0.071036
   9 H :    0.047459
  10 H :    0.049055
  11 H :    0.052017
  12 H :    0.053187
  13 H :    0.052460
  14 H :    0.049585
  15 N :    0.201582
  16 O :    0.283538
  17 O :   -0.138714

-------------------------------
LOEWDIN REDUCED ORBITAL CHARGES
-------------------------------
  0 C s       :     2.879404  s :     2.879404
      pz      :     1.057502  p :     2.936608
      px      :     0.873360
      py      :     1.005747
      dz2     :     0.027807  d :     0.105099
      dxz     :     0.018316
      dyz     :     0.029981
      dx2y2   :     0.013898
      dxy     :     0.015098
  1 C s       :     2.868843  s :     2.868843
      pz      :     1.051976  p :     3.029775
      px      :     0.960514
      py      :     1.017285
      dz2     :     0.027877  d :     0.087266
      dxz     :     0.017224
      dyz     :     0.026352
      dx2y2   :     0.006380
      dxy     :     0.009432
  2 C s       :     2.868193  s :     2.868193
      pz      :     1.060324  p :     3.023931
      px      :     0.947911
      py      :     1.015695
      dz2     :     0.024362  d :     0.088473
      dxz     :     0.014924
      dyz     :     0.027547
      dx2y2   :     0.009477
      dxy     :     0.012163
  3 C s       :     2.883789  s :     2.883789
      pz      :     1.050709  p :     2.941723
      px      :     0.885974
      py      :     1.005041
      dz2     :     0.022936  d :     0.086541
      dxz     :     0.011504
      dyz     :     0.024457
      dx2y2   :     0.013169
      dxy     :     0.014476
  4 C s       :     2.865967  s :     2.865967
      pz      :     1.058118  p :     3.034697
      px      :     0.956904
      py      :     1.019674
      dz2     :     0.028182  d :     0.088707
      dxz     :     0.017386
      dyz     :     0.026700
      dx2y2   :     0.006872
      dxy     :     0.009566
  5 C s       :     2.870566  s :     2.870566
      pz      :     1.058774  p :     3.016104
      px      :     0.949279
      py      :     1.008050
      dz2     :     0.024080  d :     0.086965
      dxz     :     0.015029
      dyz     :     0.027214
      dx2y2   :     0.008977
      dxy     :     0.011666
  6 C s       :     2.834179  s :     2.834179
      pz      :     1.004968  p :     3.126845
      px      :     1.061248
      py      :     1.060629
      dz2     :     0.020017  d :     0.069876
      dxz     :     0.009393
      dyz     :     0.017207
      dx2y2   :     0.011468
      dxy     :     0.011790
  7 H s       :     0.862334  s :     0.862334
      pz      :     0.015062  p :     0.065319
      px      :     0.037635
      py      :     0.012622
  8 H s       :     0.863725  s :     0.863725
      pz      :     0.023694  p :     0.065239
      px      :     0.016596
      py      :     0.024949
  9 H s       :     0.887018  s :     0.887018
      pz      :     0.011246  p :     0.065523
      px      :     0.019929
      py      :     0.034348
 10 H s       :     0.882438  s :     0.882438
      pz      :     0.011484  p :     0.068507
      px      :     0.020035
      py      :     0.036988
 11 H s       :     0.880072  s :     0.880072
      pz      :     0.029003  p :     0.067911
      px      :     0.019047
      py      :     0.019862
 12 H s       :     0.878577  s :     0.878577
      pz      :     0.041835  p :     0.068237
      px      :     0.011145
      py      :     0.015257
 13 H s       :     0.879474  s :     0.879474
      pz      :     0.011749  p :     0.068066
      px      :     0.019242
      py      :     0.037075
 14 H s       :     0.881983  s :     0.881983
      pz      :     0.028686  p :     0.068432
      px      :     0.019687
      py      :     0.020058
 15 N s       :     3.611301  s :     3.611301
      pz      :     1.087917  p :     3.080938
      px      :     0.791003
      py      :     1.202018
      dz2     :     0.014157  d :     0.106179
      dxz     :     0.001307
      dyz     :     0.024286
      dx2y2   :     0.038000
      dxy     :     0.028429
 16 O s       :     3.556245  s :     3.556245
      pz      :     1.363752  p :     4.084825
      px      :     1.311475
      py      :     1.409598
      dz2     :     0.012751  d :     0.075392
      dxz     :     0.003600
      dyz     :     0.024700
      dx2y2   :     0.019681
      dxy     :     0.014660
 17 O s       :     3.911843  s :     3.911843
      pz      :     0.963506  p :     4.214954
      px      :     1.841056
      py      :     1.410392
      dz2     :     0.007500  d :     0.011916
      dxz     :     0.001436
      dyz     :     0.002547
      dx2y2   :     0.000250
      dxy     :     0.000184


                      *****************************
                      * MAYER POPULATION ANALYSIS *
                      *****************************

  NA   - Mulliken gross atomic population
  ZA   - Total nuclear charge
  QA   - Mulliken gross atomic charge
  VA   - Mayer's total valence
  BVA  - Mayer's bonded valence
  FA   - Mayer's free valence

  ATOM       NA         ZA         QA         VA         BVA        FA
  0 C      6.0381     6.0000    -0.0381     3.9439     3.9439    -0.0000
  1 C      5.9650     6.0000     0.0350     3.8508     3.8508    -0.0000
  2 C      5.9544     6.0000     0.0456     3.8364     3.8364     0.0000
  3 C      5.9315     6.0000     0.0685     3.8057     3.8057     0.0000
  4 C      5.9576     6.0000     0.0424     3.8418     3.8418    -0.0000
  5 C      5.9624     6.0000     0.0376     3.8403     3.8403    -0.0000
  6 C      5.9379     6.0000     0.0621     3.9125     3.9125    -0.0000
  7 H      0.9187     1.0000     0.0813     0.9892     0.9892    -0.0000
  8 H      0.9213     1.0000     0.0787     0.9896     0.9896    -0.0000
  9 H      0.9459     1.0000     0.0541     0.9972     0.9972    -0.0000
 10 H      0.9721     1.0000     0.0279     0.9910     0.9910    -0.0000
 11 H      0.9608     1.0000     0.0392     0.9818     0.9818     0.0000
 12 H      0.9507     1.0000     0.0493     0.9801     0.9801    -0.0000
 13 H      0.9594     1.0000     0.0406     0.9819     0.9819    -0.0000
 14 H      0.9708     1.0000     0.0292     0.9909     0.9909    -0.0000
 15 N      6.7321     7.0000     0.2679     2.7615     2.7615    -0.0000
 16 O      7.8127     8.0000     0.1873     2.6384     2.6384    -0.0000
 17 O      8.1088     8.0000    -0.1088     1.5961     1.5961     0.0000

  Mayer bond orders larger than 0.100000
B(  0-C ,  1-C ) :   1.2583 B(  0-C ,  5-C ) :   1.2168 B(  0-C ,  6-C ) :   1.1055 
B(  0-C , 15-N ) :   0.1065 B(  0-C , 17-O ) :   0.1358 B(  1-C ,  2-C ) :   1.4602 
B(  1-C , 10-H ) :   0.9879 B(  2-C ,  3-C ) :   1.2607 B(  2-C , 11-H ) :   0.9842 
B(  3-C ,  4-C ) :   1.2745 B(  3-C , 12-H ) :   0.9834 B(  3-C , 15-N ) :   0.1152 
B(  3-C , 17-O ) :   0.1466 B(  4-C ,  5-C ) :   1.4706 B(  4-C , 13-H ) :   0.9858 
B(  5-C , 14-H ) :   0.9917 B(  6-C ,  7-H ) :   0.9190 B(  6-C ,  8-H ) :   0.9206 
B(  6-C ,  9-H ) :   0.9588 B( 15-N , 16-O ) :   1.9391 B( 15-N , 17-O ) :   0.4478 
B( 16-O , 17-O ) :   0.6712 

-------
TIMINGS
-------

Total SCF time: 0 days 0 hours 16 min 33 sec 

Total time                  ....     993.650 sec
Sum of individual times     ....     981.667 sec  ( 98.8%)

Fock matrix formation       ....     965.620 sec  ( 97.2%)
  Split-RI-J                ....     127.122 sec  ( 13.2% of F)
  Chain of spheres X        ....     706.326 sec  ( 73.1% of F)
  XC integration            ....     131.451 sec  ( 13.6% of F)
    Basis function eval.    ....      43.820 sec  ( 33.3% of XC)
    Density eval.           ....      34.464 sec  ( 26.2% of XC)
    XC-Functional eval.     ....       9.816 sec  (  7.5% of XC)
    XC-Potential eval.      ....      32.328 sec  ( 24.6% of XC)
Diagonalization             ....       0.501 sec  (  0.1%)
Density matrix formation    ....       0.081 sec  (  0.0%)
Population analysis         ....       0.251 sec  (  0.0%)
Initial guess               ....       1.802 sec  (  0.2%)
Orbital Transformation      ....       0.530 sec  (  0.1%)
Orbital Orthonormalization  ....       0.000 sec  (  0.0%)
DIIS solution               ....       1.251 sec  (  0.1%)
SOSCF solution              ....       0.000 sec  (  0.0%)
Grid generation             ....      11.630 sec  (  1.2%)

Maximum memory used throughout the entire SCF-calculation: 69.7 MB


-------------------------------------------------------------------------------
                          DFT DISPERSION CORRECTION                            
                                                                               
                                 DFTD4 V2.5                                    
-------------------------------------------------------------------------------
The B3LYP functional is recognized
Active option DFTDOPT                   ...         5   

Starting D4
-------------------------   ----------------
Dispersion correction           -0.021341132
-------------------------   ----------------


-------------------------   --------------------
FINAL SINGLE POINT ENERGY      -475.545852999808
-------------------------   --------------------

------------------------------------------------------------------------------
                         ORCA SCF GRADIENT CALCULATION
------------------------------------------------------------------------------

 ... reading COSX grid (gridx3)
Gradient of the Kohn-Sham DFT energy:
Kohn-Sham wavefunction type      ... RKS
Hartree-Fock exchange scaling    ...    0.200
[...]
Total number of batches                      ...      848
Average number of points per batch           ...       63
Average number of grid points per atom       ...     2987
UseSFitting                                  ... on

Time for X-Grid setup             =    2.376 sec

--------------
SCF ITERATIONS
--------------
ITER       Energy         Delta-E        Max-DP      RMS-DP      [F,P]     Damp
               ***  Starting incremental Fock matrix formation  ***
  0   -475.5248733987   0.000000000000 0.00395882  0.00005387  0.0178704 0.7000
                      *** Initiating the SOSCF procedure ***
                      *** Re-Reading the Fockian *** 
                      *** Removing any level shift *** 
ITER      Energy       Delta-E        Grad      Rot      Max-DP    RMS-DP
  1   -475.52506196  -0.0001885563  0.002057  0.002057  0.012413  0.000171
               *** Restarting incremental Fock matrix formation ***
  2   -475.52558671  -0.0005247516  0.001153  0.003940  0.002779  0.000057
  3   -475.52561051  -0.0000238021  0.000407  0.009252  0.006359  0.000103
  4   -475.52549241   0.0001180938  0.005443  0.009397  0.005417  0.000086
  5   -475.52561114  -0.0001187290  0.000512  0.004458  0.004553  0.000067
  6   -475.52556096   0.0000501875  0.002340  0.003871  0.004071  0.000056
  7   -475.52561262  -0.0000516683  0.000648  0.001481  0.002006  0.000030
  8   -475.52560308   0.0000095437  0.001750  0.001097  0.001484  0.000022
  9   -475.52561417  -0.0000110869  0.000018  0.000183  0.000117  0.000003
 10   -475.52561416   0.0000000031  0.000032  0.000097  0.000063  0.000002
 11   -475.52561419  -0.0000000267  0.000005  0.000100  0.000061  0.000001
 12   -475.52561419   0.0000000019  0.000004  0.000083  0.000051  0.000001
 13   -475.52561419  -0.0000000023  0.000004  0.000025  0.000015  0.000000
                  ***Gradient check signals convergence***
              ***Rediagonalizing the Fockian in SOSCF/NRSCF***

               *****************************************************
               *                     SUCCESS                       *
               *           SCF CONVERGED AFTER  14 CYCLES          *
               *****************************************************

Old exchange energy                            =    -12.243464080 Eh
New exchange energy                            =    -12.243482361 Eh
Exchange energy change after final integration =     -0.000018281 Eh
Total energy after final integration           =   -475.525632473 Eh
Final COS-X integration done in                =    16.602 sec
Total Energy       :         -475.52563247 Eh          -12939.71030 eV
  Last Energy change         ...   -5.2859e-10  Tolerance :   1.0000e-08
  Last MAX-Density change    ...    3.5527e-15  Tolerance :   1.0000e-07
             **** THE GBW FILE WAS UPDATED (educts_optfreq_4.gbw) ****
             **** DENSITY educts_optfreq_4.scfp WAS UPDATED ****
             **** ENERGY FILE WAS UPDATED (educts_optfreq_4.en.tmp) ****
             **** THE GBW FILE WAS UPDATED (educts_optfreq_4.gbw) ****
             **** DENSITY educts_optfreq_4.scfp WAS UPDATED ****
Total SCF time: 0 days 0 hours 2 min 50 sec 

Maximum memory used throughout the entire SCF-calculation: 68.9 MB


-------------------------------------------------------------------------------
                          DFT DISPERSION CORRECTION                            
                                                                               
                                 DFTD4 V2.5                                    
-------------------------------------------------------------------------------
Starting D4
-------------------------   ----------------
Dispersion correction           -0.021359518
-------------------------   ----------------


-------------------------   --------------------
FINAL SINGLE POINT ENERGY      -475.546991990949
-------------------------   --------------------

------------------------------------------------------------------------------
                         ORCA SCF GRADIENT CALCULATION
------------------------------------------------------------------------------

 ... reading COSX grid (gridx3)
Gradient of the Kohn-Sham DFT energy:
Kohn-Sham wavefunction type      ... RKS
Hartree-Fock exchange scaling    ...    0.200
Number of operators              ...    1
Number of atoms                  ...   18
Basis set dimensions             ...  180
Integral neglect threshold       ... 2.5e-11
Integral primitive cutoff        ... 2.5e-12
SHARK Integral package           ... ON

Nuc. rep. gradient       (SHARK) ... done (  0.0 sec)
HCore & Overlap gradient (SHARK) ... done (  0.3 sec)
RI-J gradient            (SHARK) ... done (  2.6 sec)
COSX-gradient                    ... done ( 18.7 sec)
Exchange-correlation gradient    ... done
Dispersion correction            ... Starting D4


------------------- 
Dispersion Gradient 
------------------- 
   1  :   -0.000010318    0.000124723    0.000279056
   2  :   -0.000230771    0.000314104   -0.000144349
   3  :   -0.000198894    0.000144855   -0.000444591
   4  :    0.000014565   -0.000181004   -0.000415028
   5  :    0.000221947   -0.000421532   -0.000189720
   6  :    0.000228416   -0.000301798    0.000140551
   7  :   -0.000017974    0.000241558    0.000581228
   8  :    0.000039169    0.000069920    0.000147966
   9  :   -0.000038914    0.000030260    0.000166983
  10  :   -0.000017230    0.000087817    0.000130899
  11  :   -0.000113683    0.000170746   -0.000027473
  12  :   -0.000080848    0.000073279   -0.000141352
  13  :    0.000005341   -0.000069077   -0.000158826
  14  :    0.000086351   -0.000150805   -0.000037943
  15  :    0.000112438   -0.000133289    0.000110145
  16  :   -0.000000114   -0.000031128    0.000026448
  17  :    0.000003678   -0.000041390    0.000070694
  18  :   -0.000003159    0.000072761   -0.000094686

  |G| =    0.000973140

done

------------------
CARTESIAN GRADIENT
------------------

   1   C   :   -0.000034390    0.000104963   -0.000012678
   2   C   :    0.000006993    0.000029619    0.000019323
   3   C   :   -0.000143348    0.000116004   -0.000100782
   4   C   :    0.000228456   -0.000239167   -0.000237960
   5   C   :   -0.000081063   -0.000043172    0.000042432
   6   C   :    0.000044912   -0.000064783   -0.000081059
   7   C   :   -0.000129044   -0.000011231    0.000017450
   8   H   :    0.000016710   -0.000021801   -0.000043064
   9   H   :    0.000015901   -0.000060920    0.000009897
  10   H   :    0.000056568    0.000018796   -0.000050779
  11   H   :    0.000019751    0.000013622   -0.000007576
  12   H   :   -0.000004140   -0.000063115    0.000081510
  13   H   :   -0.000073659    0.000152114    0.000189483
  14   H   :   -0.000011852   -0.000007372    0.000009493
  15   H   :   -0.000015961   -0.000006062    0.000002430
  16   N   :    0.000000339    0.000158407   -0.000229832
  17   O   :    0.000024740    0.000008086    0.000515323
  18   O   :   -0.000043629   -0.000163534   -0.000109890

Difference to translation invariance:
           :   -0.0001227165   -0.0000795471    0.0000137231

Difference to rotation invariance:
           :    0.0000385112    0.0009569205   -0.0003081298

Norm of the cartesian gradient     ...    0.0008590390
RMS gradient                       ...    0.0001169004
MAX gradient                       ...    0.0005153232

-------
TIMINGS
-------

Total SCF gradient time            ...       30.812 sec

One electron gradient       ....       0.322 sec  (  1.0%)
RI-J Coulomb gradient       ....       2.636 sec  (  8.6%)
COSX gradient               ....      18.651 sec  ( 60.5%)
XC gradient                 ....       8.212 sec  ( 26.7%)

Maximum memory used throughout the entire SCFGRAD-calculation: 54.7 MB
------------------------------------------------------------------------------
                         ORCA GEOMETRY RELAXATION STEP
------------------------------------------------------------------------------

Reading the OPT-File                    .... done
Getting information on internals        .... done
Copying old internal coords+grads       .... done
Making the new internal coordinates     .... (new redundants).... done
Validating the new internal coordinates .... (new redundants).... done
Calculating the B-matrix                .... done
Calculating the G,G- and P matrices     .... done
Transforming gradient to internals      .... done
Projecting the internal gradient        .... done
Number of atoms                         ....  18
Number of internal coordinates          ....  92
Current Energy                          ....  -475.546991991 Eh
Current gradient norm                   ....     0.000859039 Eh/bohr
Maximum allowed component of the step   ....  0.300
Current trust radius                    ....  0.300
Updating the Hessian (BFGS)             .... done
Forming the augmented Hessian           .... done
Diagonalizing the augmented Hessian     .... done
Last element of RFO vector              ....  0.714451679
Lowest eigenvalues of augmented Hessian:
 -0.000078919  0.000075332  0.000261939  0.000471276  0.001241888
Length of the computed step             ....  0.979331151
Warning: the length of the step is outside the trust region - taking restricted step instead
The input lambda is                     ....    -0.000079
   iter:   1  x=   -0.000115  g=24274.679643 f(x)=     0.869089
   iter:   2  x=   -0.000161  g= 7904.544997 f(x)=     0.364600
   iter:   3  x=   -0.000210  g= 2870.046166 f(x)=     0.141805
   iter:   4  x=   -0.000246  g= 1286.315762 f(x)=     0.046033
   iter:   5  x=   -0.000258  g=  803.433998 f(x)=     0.009543
   iter:   6  x=   -0.000259  g=  697.688435 f(x)=     0.000648
   iter:   7  x=   -0.000259  g=  690.222400 f(x)=     0.000003
   iter:   8  x=   -0.000259  g=  690.181992 f(x)=     0.000000
   iter:   9  x=   -0.000259  g=  690.181990 f(x)=     0.000000
The output lambda is                    ....    -0.000259 (9 iterations)
The final length of the internal step   ....  0.300000000
Converting the step to cartesian space:
 Initial RMS(Int)=    0.0312771621
Transforming coordinates:
 Iter   0:  RMS(Cart)=    0.0310582213 RMS(Int)=    0.0312774483
 Iter   1:  RMS(Cart)=    0.0001620036 RMS(Int)=    0.0001515968
 Iter   2:  RMS(Cart)=    0.0000063179 RMS(Int)=    0.0000050963
 Iter   3:  RMS(Cart)=    0.0000002173 RMS(Int)=    0.0000002111
 Iter   4:  RMS(Cart)=    0.0000000088 RMS(Int)=    0.0000000071
done
Storing new coordinates                 .... done

                                .--------------------.
          ----------------------|Geometry convergence|-------------------------
          Item                value                   Tolerance       Converged
          ---------------------------------------------------------------------
          Energy change      -0.0000228607            0.0000010000      NO
          RMS gradient        0.0000651349            0.0000300000      NO
          MAX gradient        0.0003222351            0.0001000000      NO
          RMS step            0.0312771621            0.0006000000      NO
          MAX step            0.1450830813            0.0010000000      NO
          ........................................................
          Max(Bonds)      0.0768      Max(Angles)    0.47
          Max(Dihed)        2.43      Max(Improp)    0.00
          ---------------------------------------------------------------------

The optimization has not yet converged - more geometry cycles are needed


    ---------------------------------------------------------------------------
                         Redundant Internal Coordinates
                            (Angstroem and degrees)

        Definition                    Value    dE/dq     Step     New-Value
    ----------------------------------------------------------------------------
     1. B(C   1,C   0)                1.4235 -0.000058  0.0001    1.4236   
     2. B(C   2,C   1)                1.3831 -0.000041 -0.0000    1.3831   
     3. B(C   3,C   2)                1.4164  0.000143  0.0000    1.4165   
     4. B(C   4,C   3)                1.4129 -0.000048  0.0001    1.4129   
     5. B(C   5,C   4)                1.3815 -0.000080  0.0001    1.3816   
     6. B(C   5,C   0)                1.4315  0.000072 -0.0001    1.4315   
     7. B(C   6,C   0)                1.4852 -0.000084  0.0000    1.4853   
     8. B(H   7,C   6)                1.1054 -0.000001 -0.0000    1.1054   
     9. B(H   8,C   6)                1.1089  0.000032 -0.0000    1.1089   
    10. B(H   9,C   6)                1.0977 -0.000006  0.0000    1.0977   
    11. B(H  10,C   1)                1.0923  0.000002 -0.0000    1.0923   
    12. B(H  11,C   2)                1.0919 -0.000123 -0.0001    1.0918   
    13. B(H  12,C   3)                1.0925 -0.000204  0.0001    1.0925   
    14. B(H  13,C   4)                1.0920 -0.000002 -0.0000    1.0920   
    15. B(H  14,C   5)                1.0929 -0.000003  0.0000    1.0929   
    16. B(N  15,H  12)               13.6826  0.000071  0.0630   13.7457   
    17. B(N  15,H  11)               14.2201  0.000015  0.0696   14.2897   
    18. B(O  16,H  12)               13.3159 -0.000036  0.0667   13.3826   
    19. B(O  16,H  11)               13.7038 -0.000061  0.0768   13.7806   
    20. B(O  16,C   3)               14.3054 -0.000160  0.0682   14.3736   
    21. B(O  16,N  15)                1.1377 -0.000133  0.0005    1.1381   
    22. B(O  17,O  16)                1.5687  0.000032 -0.0039    1.5648   
    23. A(C   1,C   0,C   5)          118.72  0.000048   -0.01    118.71   
    24. A(C   1,C   0,C   6)          121.33  0.000002   -0.01    121.32   
    25. A(C   5,C   0,C   6)          119.95 -0.000050    0.01    119.96   
    26. A(C   0,C   1,H  10)          119.06  0.000029   -0.01    119.05   
    27. A(C   0,C   1,C   2)          120.54 -0.000051    0.01    120.55   
    28. A(C   2,C   1,H  10)          120.40  0.000023   -0.01    120.40   
    29. A(C   3,C   2,H  11)          119.70  0.000040   -0.01    119.69   
    30. A(C   1,C   2,C   3)          119.89 -0.000002   -0.01    119.88   
    31. A(C   1,C   2,H  11)          120.41 -0.000038    0.01    120.42   
    32. A(C   2,C   3,C   4)          120.47  0.000031   -0.00    120.46   
    33. A(C   2,C   3,O  16)           95.56 -0.000021    0.26     95.81   
    34. A(C   4,C   3,H  12)          119.85  0.000055   -0.06    119.80   
    35. A(H  12,C   3,O  16)           24.14 -0.000065   -0.25     23.89   
    36. A(C   4,C   3,O  16)          143.96 -0.000010   -0.22    143.75   
    37. A(C   2,C   3,H  12)          119.68 -0.000086    0.06    119.74   
    38. A(C   5,C   4,H  13)          120.48  0.000015   -0.02    120.46   
    39. A(C   3,C   4,H  13)          119.86  0.000032    0.01    119.87   
    40. A(C   3,C   4,C   5)          119.66 -0.000046    0.00    119.67   
    41. A(C   4,C   5,H  14)          120.35 -0.000006    0.01    120.36   
    42. A(C   0,C   5,C   4)          120.73  0.000021    0.00    120.73   
    43. A(C   0,C   5,H  14)          118.92 -0.000015   -0.01    118.91   
    44. A(H   8,C   6,H   9)          108.39  0.000074   -0.02    108.37   
    45. A(H   7,C   6,H   9)          109.50  0.000025   -0.05    109.46   
    46. A(C   0,C   6,H   9)          112.79 -0.000032   -0.01    112.78   
    47. A(H   7,C   6,H   8)          105.04  0.000022    0.06    105.10   
    48. A(C   0,C   6,H   8)          109.94 -0.000006    0.02    109.96   
    49. A(C   0,C   6,H   7)          110.86 -0.000077    0.00    110.87   
    50. A(C   3,O  16,O  17)          150.48  0.000252    0.47    150.94   
    51. A(C   3,O  16,N  15)          108.10  0.000071   -0.20    107.90   
    52. A(N  15,O  16,O  17)          101.09 -0.000322    0.20    101.29   
    53. D(H  10,C   1,C   0,C   5)   -179.92  0.000002    0.01   -179.91   
    54. D(C   2,C   1,C   0,C   5)      0.02  0.000007   -0.01      0.01   
    55. D(C   2,C   1,C   0,C   6)   -179.45  0.000012   -0.03   -179.48   
    56. D(H  10,C   1,C   0,C   6)      0.61  0.000008   -0.01      0.60   
    57. D(C   3,C   2,C   1,C   0)     -0.10 -0.000023   -0.05     -0.15   
    58. D(H  11,C   2,C   1,C   0)    179.96 -0.000020    0.00    179.97   
    59. D(C   3,C   2,C   1,H  10)    179.85 -0.000019   -0.08    179.77   
    60. D(H  11,C   2,C   1,H  10)     -0.09 -0.000016   -0.02     -0.12   
    61. D(O  16,C   3,C   2,H  11)      1.04  0.000015    0.10      1.14   
    62. D(H  12,C   3,C   2,H  11)      0.04  0.000012   -0.10     -0.06   
    63. D(H  12,C   3,C   2,C   1)   -179.90  0.000015   -0.05   -179.95   
    64. D(C   4,C   3,C   2,C   1)      0.15  0.000031    0.11      0.26   
    65. D(C   4,C   3,C   2,H  11)   -179.91  0.000028    0.06   -179.85   
    66. D(O  16,C   3,C   2,C   1)   -178.90  0.000018    0.15   -178.75   
    67. D(C   5,C   4,C   3,C   2)     -0.12 -0.000022   -0.10     -0.23   
    68. D(H  13,C   4,C   3,O  16)     -1.64  0.000008   -0.22     -1.86   
    69. D(H  13,C   4,C   3,H  12)      0.02  0.000001    0.08      0.10   
    70. D(H  13,C   4,C   3,C   2)    179.97 -0.000015   -0.08    179.89   
    71. D(C   5,C   4,C   3,O  16)    178.27  0.000001   -0.25    178.03   
    72. D(C   5,C   4,C   3,H  12)    179.93 -0.000006    0.05    179.98   
    73. D(H  14,C   5,C   4,H  13)     -0.00 -0.000005    0.01      0.00   
    74. D(C   0,C   5,C   4,H  13)    179.95 -0.000001    0.02    179.97   
    75. D(C   0,C   5,C   4,C   3)      0.04  0.000006    0.04      0.09   
    76. D(H  14,C   5,C   0,C   6)     -0.56  0.000001    0.05     -0.51   
    77. D(H  14,C   5,C   0,C   1)    179.97  0.000006    0.03    179.99   
    78. D(H  14,C   5,C   4,C   3)   -179.91  0.000002    0.03   -179.88   
    79. D(C   4,C   5,C   0,C   6)    179.49 -0.000003    0.04    179.52   
    80. D(C   4,C   5,C   0,C   1)      0.01  0.000002    0.02      0.02   
    81. D(H   8,C   6,C   0,C   1)    113.84  0.000024   -0.04    113.80   
    82. D(H   7,C   6,C   0,C   5)     50.08  0.000007    0.02     50.10   
    83. D(H   7,C   6,C   0,C   1)   -130.46  0.000002    0.04   -130.42   
    84. D(H   9,C   6,C   0,C   5)    173.29 -0.000041   -0.05    173.24   
    85. D(H   9,C   6,C   0,C   1)     -7.25 -0.000046   -0.03     -7.28   
    86. D(H   8,C   6,C   0,C   5)    -65.62  0.000028   -0.06    -65.69   
    87. D(O  17,O  16,C   3,H  12)   -137.08  0.000003   -0.08   -137.16   
    88. D(O  17,O  16,C   3,C   4)   -133.58 -0.000004    0.35   -133.23   
    89. D(O  17,O  16,C   3,C   2)     45.03  0.000017    0.23     45.26   
    90. D(N  15,O  16,C   3,H  12)     33.98 -0.000027    2.00     35.98   
    91. D(N  15,O  16,C   3,C   4)     37.49 -0.000034    2.43     39.92   
    92. D(N  15,O  16,C   3,C   2)   -143.90 -0.000014    2.31   -141.59   
    ----------------------------------------------------------------------------




    ----------------------------------------------------------------------------
                                   ERROR !!!
       The optimization did not converge but reached the maximum 
       number of optimization cycles.
       As a subsequent Frequencies calculation has been requested
       ORCA will abort at this point of the run.
       Please restart the calculation with the lowest energy geometry and/or
       a larger maxiter for the geometry optimization.
    ----------------------------------------------------------------------------


[file orca_main/run.cpp, line 12331]: ORCA finished with error return - aborting the run
