
                                 *****************
                                 * O   R   C   A *
                                 *****************

                                            #,                                       
                                            ###                                      
                                            ####                                     
                                            #####                                    
                                            ######                                   
                                           ########,                                 
                                     ,,################,,,,,                         
                               ,,#################################,,                 
                          ,,##########################################,,             
                       ,#########################################, ''#####,          
                    ,#############################################,,   '####,        
                  ,##################################################,,,,####,       
                ,###########''''           ''''###############################       
              ,#####''   ,,,,##########,,,,          '''####'''          '####       
            ,##' ,,,,###########################,,,                        '##       
           ' ,,###''''                  '''############,,,                           
         ,,##''                                '''############,,,,        ,,,,,,###''
      ,#''                                            '''#######################'''  
     '                                                          ''''####''''         
             ,#######,   #######,   ,#######,      ##                                
            ,#'     '#,  ##    ##  ,#'     '#,    #''#        ######   ,####,        
            ##       ##  ##   ,#'  ##            #'  '#       #        #'  '#        
            ##       ##  #######   ##           ,######,      #####,   #    #        
            '#,     ,#'  ##    ##  '#,     ,#' ,#      #,         ##   #,  ,#        
             '#######'   ##     ##  '#######'  #'      '#     #####' # '####'        



                  #######################################################
                  #                        -***-                        #
                  #          Department of theory and spectroscopy      #
                  #    Directorship and core code : Frank Neese         #
                  #        Max Planck Institute fuer Kohlenforschung    #
                  #                Kaiser Wilhelm Platz 1               #
                  #                 D-45470 Muelheim/Ruhr               #
                  #                      Germany                        #
                  #                                                     #
                  #                  All rights reserved                #
                  #                        -***-                        #
                  #######################################################



                         Program Version 5.0.4 -  RELEASE  -

 With contributions from (in alphabetic order):
   Daniel Aravena         : Magnetic Suceptibility
   Michael Atanasov       : Ab Initio Ligand Field Theory (pilot matlab implementation)
   Alexander A. Auer      : GIAO ZORA, VPT2 properties, NMR spectrum
   Ute Becker             : Parallelization
   Giovanni Bistoni       : ED, misc. LED, open-shell LED, HFLD
   Martin Brehm           : Molecular dynamics
   Dmytro Bykov           : SCF Hessian
   Vijay G. Chilkuri      : MRCI spin determinant printing, contributions to CSF-ICE
   Dipayan Datta          : RHF DLPNO-CCSD density
   Achintya Kumar Dutta   : EOM-CC, STEOM-CC
   Dmitry Ganyushin       : Spin-Orbit,Spin-Spin,Magnetic field MRCI
   Miquel Garcia          : C-PCM and meta-GGA Hessian, CC/C-PCM, Gaussian charge scheme
   Yang Guo               : DLPNO-NEVPT2, F12-NEVPT2, CIM, IAO-localization
   Andreas Hansen         : Spin unrestricted coupled pair/coupled cluster methods
   Benjamin Helmich-Paris : MC-RPA, TRAH-SCF, COSX integrals
   Lee Huntington         : MR-EOM, pCC
   Robert Izsak           : Overlap fitted RIJCOSX, COSX-SCS-MP3, EOM
   Marcus Kettner         : VPT2
   Christian Kollmar      : KDIIS, OOCD, Brueckner-CCSD(T), CCSD density, CASPT2, CASPT2-K
   Simone Kossmann        : Meta GGA functionals, TD-DFT gradient, OOMP2, MP2 Hessian
   Martin Krupicka        : Initial AUTO-CI
   Lucas Lang             : DCDCAS
   Marvin Lechner         : AUTO-CI (C++ implementation), FIC-MRCC
   Dagmar Lenk            : GEPOL surface, SMD
   Dimitrios Liakos       : Extrapolation schemes; Compound Job, initial MDCI parallelization
   Dimitrios Manganas     : Further ROCIS development; embedding schemes
   Dimitrios Pantazis     : SARC Basis sets
   Anastasios Papadopoulos: AUTO-CI, single reference methods and gradients
   Taras Petrenko         : DFT Hessian,TD-DFT gradient, ASA, ECA, R-Raman, ABS, FL, XAS/XES, NRVS
   Peter Pinski           : DLPNO-MP2, DLPNO-MP2 Gradient
   Christoph Reimann      : Effective Core Potentials
   Marius Retegan         : Local ZFS, SOC
   Christoph Riplinger    : Optimizer, TS searches, QM/MM, DLPNO-CCSD(T), (RO)-DLPNO pert. Triples
   Tobias Risthaus        : Range-separated hybrids, TD-DFT gradient, RPA, STAB
   Michael Roemelt        : Original ROCIS implementation
   Masaaki Saitow         : Open-shell DLPNO-CCSD energy and density
   Barbara Sandhoefer     : DKH picture change effects
   Avijit Sen             : IP-ROCIS
   Kantharuban Sivalingam : CASSCF convergence, NEVPT2, FIC-MRCI
   Bernardo de Souza      : ESD, SOC TD-DFT
   Georgi Stoychev        : AutoAux, RI-MP2 NMR, DLPNO-MP2 response
   Willem Van den Heuvel  : Paramagnetic NMR
   Boris Wezisla          : Elementary symmetry handling
   Frank Wennmohs         : Technical directorship


 We gratefully acknowledge several colleagues who have allowed us to
 interface, adapt or use parts of their codes:
   Stefan Grimme, W. Hujo, H. Kruse, P. Pracht,  : VdW corrections, initial TS optimization,
                  C. Bannwarth, S. Ehlert          DFT functionals, gCP, sTDA/sTD-DF
   Ed Valeev, F. Pavosevic, A. Kumar             : LibInt (2-el integral package), F12 methods
   Garnet Chan, S. Sharma, J. Yang, R. Olivares  : DMRG
   Ulf Ekstrom                                   : XCFun DFT Library
   Mihaly Kallay                                 : mrcc  (arbitrary order and MRCC methods)
   Jiri Pittner, Ondrej Demel                    : Mk-CCSD
   Frank Weinhold                                : gennbo (NPA and NBO analysis)
   Christopher J. Cramer and Donald G. Truhlar   : smd solvation model
   Lars Goerigk                                  : TD-DFT with DH, B97 family of functionals
   V. Asgeirsson, H. Jonsson                     : NEB implementation
   FAccTs GmbH                                   : IRC, NEB, NEB-TS, DLPNO-Multilevel, CI-OPT
                                                   MM, QMMM, 2- and 3-layer-ONIOM, Crystal-QMMM,
                                                   LR-CPCM, SF, NACMEs, symmetry and pop. for TD-DFT,
                                                   nearIR, NL-DFT gradient (VV10), updates on ESD,
                                                   ML-optimized integration grids
   S Lehtola, MJT Oliveira, MAL Marques          : LibXC Library
   Liviu Ungur et al                             : ANISO software


 Your calculation uses the libint2 library for the computation of 2-el integrals
 For citations please refer to: http://libint.valeyev.net

 Your ORCA version has been built with support for libXC version: 5.1.0
 For citations please refer to: https://tddft.org/programs/libxc/

 This ORCA versions uses:
   CBLAS   interface :  Fast vector & matrix operations
   LAPACKE interface :  Fast linear algebra routines
   Shared memory     :  Shared parallel matrices


Your calculation utilizes the atom-pairwise dispersion correction
based on tight binding partial charges (D4)
Cite in your paper:
E.Caldeweyher, C.Bannwarth, S.Grimme, J.Chem.Phys., (2017), 147, 034112.
E.Caldeweyher, S.Ehlert, A.Hansen, H.Neugebauer, S.Grimme, J.Chem.Phys., (2018), in progress.
   

================================================================================

----- Orbital basis set information -----
Your calculation utilizes the basis: def2-SVP
   F. Weigend and R. Ahlrichs, Phys. Chem. Chem. Phys. 7, 3297 (2005).

----- AuxJ basis set information -----
Your calculation utilizes the auxiliary basis: def2/J
   F. Weigend, Phys. Chem. Chem. Phys. 8, 1057 (2006).

================================================================================
                                        WARNINGS
                       Please study these warnings very carefully!
================================================================================


INFO   : the flag for use of the SHARK integral package has been found!

================================================================================
                                       INPUT FILE
================================================================================
NAME = e_c_12_freq.inp
|  1> !B3LYP DEF2-SVP FREQ D4 SOSCF
|  2> 
|  3> * xyz 1 1
|  4>   C   -5.68810343766179      0.74157194467983      4.01600345747737
|  5>   C   -6.13711342784993      1.48130994548141      2.89520885046906
|  6>   C   -6.03318680210626      0.96557073872231      1.62407657863834
|  7>   C   -5.47718636511764     -0.30634894056667      1.43265234477212
|  8>   C   -5.02860291959136     -1.05397170266959      2.53218431771792
|  9>   C   -5.13320119858906     -0.53593985929596      3.80456689754732
| 10>   C   -5.80170604025710      1.31760185169756      5.38315949856062
| 11>   H   -5.47839312050791      0.62137420173713      6.15196784693495
| 12>   H   -6.83102372666073      1.62130497584222      5.59177633389392
| 13>   H   -5.19908828977786      2.22779405730209      5.46514341465626
| 14>   H   -6.56547870615366      2.46171907523405      3.05178584971923
| 15>   H   -6.37818858479631      1.53540488145251      0.77381213864573
| 16>   H   -5.39349414981069     -0.71397844778302      0.43548612211496
| 17>   H   -4.60252127018528     -2.03430197242319      2.37625178977967
| 18>   H   -4.78948470065247     -1.10737471780284      4.65509537223694
| 19>   N   -10.72284505292838     -2.04389248947835    -23.96004958934253
| 20>   O   -10.31363332527764     -1.94908028679250    -22.88606609379230
| 21>   O   -10.56943174759388     -2.21893568724735    -25.08929918767560
| 22> **                         ****END OF INPUT****
================================================================================

                       ****************************
                       * Single Point Calculation *
                       ****************************

---------------------------------
CARTESIAN COORDINATES (ANGSTROEM)
---------------------------------
  C     -5.688103    0.741572    4.016003
  C     -6.137113    1.481310    2.895209
  C     -6.033187    0.965571    1.624077
  C     -5.477186   -0.306349    1.432652
  C     -5.028603   -1.053972    2.532184
  C     -5.133201   -0.535940    3.804567
  C     -5.801706    1.317602    5.383159
  H     -5.478393    0.621374    6.151968
  H     -6.831024    1.621305    5.591776
  H     -5.199088    2.227794    5.465143
  H     -6.565479    2.461719    3.051786
  H     -6.378189    1.535405    0.773812
  H     -5.393494   -0.713978    0.435486
  H     -4.602521   -2.034302    2.376252
  H     -4.789485   -1.107375    4.655095
  N    -10.722845   -2.043892  -23.960050
  O    -10.313633   -1.949080  -22.886066
  O    -10.569432   -2.218936  -25.089299

----------------------------
CARTESIAN COORDINATES (A.U.)
----------------------------
  NO LB      ZA    FRAG     MASS         X           Y           Z
   0 C     6.0000    0    12.011  -10.748958    1.401368    7.589147
   1 C     6.0000    0    12.011  -11.597464    2.799270    5.471152
   2 C     6.0000    0    12.011  -11.401071    1.824664    3.069060
   3 C     6.0000    0    12.011  -10.350382   -0.578916    2.707321
   4 C     6.0000    0    12.011   -9.502682   -1.991718    4.785135
   5 C     6.0000    0    12.011   -9.700344   -1.012780    7.189589
   6 C     6.0000    0    12.011  -10.963636    2.489907   10.172697
   7 H     1.0000    0     1.008  -10.352663    1.174227   11.625534
   8 H     1.0000    0     1.008  -12.908764    3.063822   10.566926
   9 H     1.0000    0     1.008   -9.824853    4.209921   10.327624
  10 H     1.0000    0     1.008  -12.406957    4.651975    5.767039
  11 H     1.0000    0     1.008  -12.053030    2.901495    1.462293
  12 H     1.0000    0     1.008  -10.192227   -1.349224    0.822950
  13 H     1.0000    0     1.008   -8.697505   -3.844274    4.490465
  14 H     1.0000    0     1.008   -9.050814   -2.092635    8.796855
  15 N     7.0000    0    14.007  -20.263241   -3.862397  -45.277932
  16 O     8.0000    0    15.999  -19.489942   -3.683228  -43.248397
  17 O     8.0000    0    15.999  -19.973331   -4.193181  -47.411904

--------------------------------
INTERNAL COORDINATES (ANGSTROEM)
--------------------------------
 C      0   0   0     0.000000000000     0.00000000     0.00000000
 C      1   0   0     1.415981225941     0.00000000     0.00000000
 C      2   1   0     1.375705246561   120.76770225     0.00000000
 C      3   2   1     1.401270635461   119.76758112     0.00000000
 C      4   3   2     1.403259584519   120.22495640     0.07016683
 C      5   4   3     1.377771831680   119.93589668   359.91938792
 C      1   2   3     1.487895038558   120.05545580   179.68401202
 H      7   1   2     1.086430145558   112.29675239   176.41666547
 H      7   1   2     1.093275569627   110.77897227    54.46642647
 H      7   1   2     1.094677745656   110.40681726   297.54678890
 H      2   1   3     1.081302561753   118.99150791   179.96892273
 H      3   2   1     1.080132768782   120.36066293   179.97456650
 H      4   3   2     1.080512229299   119.94939786   180.04364345
 H      5   4   3     1.080235142469   119.76774913   179.91064323
 H      6   5   4     1.080776348154   120.25323889   179.99011069
 N     13   4   3    25.006255518487   154.67309028   342.89650426
 O     16  13   4     1.153206026926     8.67673149   118.24405959
 O     16  13   4     1.152987605603   159.26189791   146.37137580

---------------------------
INTERNAL COORDINATES (A.U.)
---------------------------
 C      0   0   0     0.000000000000     0.00000000     0.00000000
 C      1   0   0     2.675816727803     0.00000000     0.00000000
 C      2   1   0     2.599706157000   120.76770225     0.00000000
 C      3   2   1     2.648017740527   119.76758112     0.00000000
 C      4   3   2     2.651776309541   120.22495640     0.07016683
 C      5   4   3     2.603611436907   119.93589668   359.91938792
 C      1   2   3     2.811714138895   120.05545580   179.68401202
 H      7   1   2     2.053055438740   112.29675239   176.41666547
 H      7   1   2     2.065991415502   110.77897227    54.46642647
 H      7   1   2     2.068641144188   110.40681726   297.54678890
 H      2   1   3     2.043365709620   118.99150791   179.96892273
 H      3   2   1     2.041155121272   120.36066293   179.97456650
 H      4   3   2     2.041872197728   119.94939786   180.04364345
 H      5   4   3     2.041348579504   119.76774913   179.91064323
 H      6   5   4     2.042371310030   120.25323889   179.99011069
 N     13   4   3    47.254974564797   154.67309028   342.89650426
 O     16  13   4     2.179243566878     8.67673149   118.24405959
 O     16  13   4     2.178830810395   159.26189791   146.37137580

---------------------
BASIS SET INFORMATION
---------------------
There are 4 groups of distinct atoms

 Group   1 Type C   : 7s4p1d contracted to 3s2p1d pattern {511/31/1}
 Group   2 Type H   : 4s1p contracted to 2s1p pattern {31/1}
 Group   3 Type N   : 7s4p1d contracted to 3s2p1d pattern {511/31/1}
 Group   4 Type O   : 7s4p1d contracted to 3s2p1d pattern {511/31/1}

Atom   0C    basis set group =>   1
Atom   1C    basis set group =>   1
Atom   2C    basis set group =>   1
Atom   3C    basis set group =>   1
Atom   4C    basis set group =>   1
Atom   5C    basis set group =>   1
Atom   6C    basis set group =>   1
Atom   7H    basis set group =>   2
Atom   8H    basis set group =>   2
Atom   9H    basis set group =>   2
Atom  10H    basis set group =>   2
Atom  11H    basis set group =>   2
Atom  12H    basis set group =>   2
Atom  13H    basis set group =>   2
Atom  14H    basis set group =>   2
Atom  15N    basis set group =>   3
Atom  16O    basis set group =>   4
Atom  17O    basis set group =>   4
---------------------------------
AUXILIARY/J BASIS SET INFORMATION
---------------------------------
There are 4 groups of distinct atoms

 Group   1 Type C   : 12s5p4d2f1g contracted to 6s4p3d1f1g pattern {711111/2111/211/2/1}
 Group   2 Type H   : 5s2p1d contracted to 3s1p1d pattern {311/2/1}
 Group   3 Type N   : 12s5p4d2f1g contracted to 6s4p3d1f1g pattern {711111/2111/211/2/1}
 Group   4 Type O   : 12s5p4d2f1g contracted to 6s4p3d1f1g pattern {711111/2111/211/2/1}

Atom   0C    basis set group =>   1
Atom   1C    basis set group =>   1
Atom   2C    basis set group =>   1
Atom   3C    basis set group =>   1
Atom   4C    basis set group =>   1
Atom   5C    basis set group =>   1
Atom   6C    basis set group =>   1
Atom   7H    basis set group =>   2
Atom   8H    basis set group =>   2
Atom   9H    basis set group =>   2
Atom  10H    basis set group =>   2
Atom  11H    basis set group =>   2
Atom  12H    basis set group =>   2
Atom  13H    basis set group =>   2
Atom  14H    basis set group =>   2
Atom  15N    basis set group =>   3
Atom  16O    basis set group =>   4
Atom  17O    basis set group =>   4
------------------------------------------------------------------------------
                           ORCA GTO INTEGRAL CALCULATION
                           -- RI-GTO INTEGRALS CHOSEN --
------------------------------------------------------------------------------
------------------------------------------------------------------------------
                   ___                                                        
                  /   \      - P O W E R E D   B Y -                         
                 /     \                                                     
                 |  |  |   _    _      __       _____    __    __             
                 |  |  |  | |  | |    /  \     |  _  \  |  |  /  |          
                  \  \/   | |  | |   /    \    | | | |  |  | /  /          
                 / \  \   | |__| |  /  /\  \   | |_| |  |  |/  /          
                |  |  |   |  __  | /  /__\  \  |    /   |      \           
                |  |  |   | |  | | |   __   |  |    \   |  |\   \          
                \     /   | |  | | |  |  |  |  | |\  \  |  | \   \       
                 \___/    |_|  |_| |__|  |__|  |_| \__\ |__|  \__/        
                                                                              
                      - O R C A' S   B I G   F R I E N D -                    
                                      &                                       
                       - I N T E G R A L  F E E D E R -                       
                                                                              
 v1 FN, 2020, v2 2021                                                         
------------------------------------------------------------------------------


Reading SHARK input file e_c_12_freq.SHARKINP.tmp ... ok
----------------------
SHARK INTEGRAL PACKAGE
----------------------

Number of atoms                             ...     18
Number of basis functions                   ...    180
Number of shells                            ...     84
Maximum angular momentum                    ...      2
Integral batch strategy                     ... SHARK/LIBINT Hybrid
RI-J (if used) integral strategy            ... SPLIT-RIJ (Revised 2003 algorithm where possible)
Printlevel                                  ...      1
Contraction scheme used                     ... SEGMENTED contraction
Coulomb Range Separation                    ... NOT USED
Exchange Range Separation                   ... NOT USED
Finite Nucleus Model                        ... NOT USED
Auxiliary Coulomb fitting basis             ... AVAILABLE
   # of basis functions in Aux-J            ...    578
   # of shells in Aux-J                     ...    190
   Maximum angular momentum in Aux-J        ...      4
Auxiliary J/K fitting basis                 ... NOT available
Auxiliary Correlation fitting basis         ... NOT available
Auxiliary 'external' fitting basis          ... NOT available
Integral threshold                          ...     1.000000e-10
Primitive cut-off                           ...     1.000000e-11
Primitive pair pre-selection threshold      ...     1.000000e-11

Calculating pre-screening integrals         ... done (  0.1 sec) Dimension = 84
Organizing shell pair data                  ... done (  0.0 sec)
Shell pair information
Total number of shell pairs                 ...      3570
Shell pairs after pre-screening             ...      2287
Total number of primitive shell pairs       ...     13034
Primitive shell pairs kept                  ...      6296
          la=0 lb=0:    720 shell pairs
          la=1 lb=0:    825 shell pairs
          la=1 lb=1:    262 shell pairs
          la=2 lb=0:    279 shell pairs
          la=2 lb=1:    167 shell pairs
          la=2 lb=2:     34 shell pairs

Calculating one electron integrals          ... done (  0.0 sec)
Calculating RI/J V-Matrix + Cholesky decomp.... done (  0.0 sec)
Calculating Nuclear repulsion               ... done (  0.0 sec) ENN=    358.131731609420 Eh

SHARK setup successfully completed in   0.4 seconds

Maximum memory used throughout the entire GTOINT-calculation: 19.2 MB
-------------------------------------------------------------------------------
                                 ORCA SCF
-------------------------------------------------------------------------------

------------
SCF SETTINGS
------------
Hamiltonian:
 Density Functional     Method          .... DFT(GTOs)
 Exchange Functional    Exchange        .... B88
   X-Alpha parameter    XAlpha          ....  0.666667
   Becke's b parameter  XBeta           ....  0.004200
 Correlation Functional Correlation     .... LYP
 LDA part of GGA corr.  LDAOpt          .... VWN-5
 Gradients option       PostSCFGGA      .... off
 Hybrid DFT is turned on
   Fraction HF Exchange ScalHFX         ....  0.200000
   Scaling of DF-GGA-X  ScalDFX         ....  0.720000
   Scaling of DF-GGA-C  ScalDFC         ....  0.810000
   Scaling of DF-LDA-C  ScalLDAC        ....  1.000000
   Perturbative correction              ....  0.000000
   Density functional embedding theory  .... OFF
   NL short-range parameter             ....  4.800000
 RI-approximation to the Coulomb term is turned on
   Number of AuxJ basis functions       .... 578
   RIJ-COSX (HFX calculated with COS-X)).... on


General Settings:
 Integral files         IntName         .... e_c_12_freq
 Hartree-Fock type      HFTyp           .... RHF
 Total Charge           Charge          ....    1
 Multiplicity           Mult            ....    1
 Number of Electrons    NEL             ....   72
 Basis Dimension        Dim             ....  180
 Nuclear Repulsion      ENuc            ....    358.1317316094 Eh

Convergence Acceleration:
 DIIS                   CNVDIIS         .... on
   Start iteration      DIISMaxIt       ....    12
   Startup error        DIISStart       ....  0.200000
   # of expansion vecs  DIISMaxEq       ....     5
   Bias factor          DIISBfac        ....   1.050
   Max. coefficient     DIISMaxC        ....  10.000
 Trust-Rad. Augm. Hess. CNVTRAH         .... auto
   Auto Start mean grad. ratio tolernc. ....  1.125000
   Auto Start start iteration           ....    20
   Auto Start num. interpolation iter.  ....    10
   Max. Number of Micro iterations      ....    16
   Max. Number of Macro iterations      .... Maxiter - #DIIS iter
   Number of Davidson start vectors     ....     2
   Converg. threshold I  (grad. norm)   ....   5.000e-05
   Converg. threshold II (energy diff.) ....   1.000e-06
   Grad. Scal. Fac. for Micro threshold ....   0.100
   Minimum threshold for Micro iter.    ....   0.010
   NR start threshold (gradient norm)   ....   0.001
   Initial trust radius                 ....   0.400
   Minimum AH scaling param. (alpha)    ....   1.000
   Maximum AH scaling param. (alpha)    .... 1000.000
   Orbital update algorithm             .... Taylor
   White noise on init. David. guess    .... on
   Maximum white noise                  ....   0.010
   Quad. conv. algorithm                .... NR
 SOSCF                  CNVSOSCF        .... on
   Start iteration      SOSCFMaxIt      ....   150
   Startup grad/error   SOSCFStart      ....  0.003300
 Level Shifting         CNVShift        .... on
   Level shift para.    LevelShift      ....    0.2500
   Turn off err/grad.   ShiftErr        ....    0.0010
 Zerner damping         CNVZerner       .... off
 Static damping         CNVDamp         .... on
   Fraction old density DampFac         ....    0.7000
   Max. Damping (<1)    DampMax         ....    0.9800
   Min. Damping (>=0)   DampMin         ....    0.0000
   Turn off err/grad.   DampErr         ....    0.1000
 Fernandez-Rico         CNVRico         .... off

SCF Procedure:
 Maximum # iterations   MaxIter         ....   125
 SCF integral mode      SCFMode         .... Direct
   Integral package                     .... SHARK and LIBINT hybrid scheme
 Reset frequency        DirectResetFreq ....    20
 Integral Threshold     Thresh          ....  1.000e-10 Eh
 Primitive CutOff       TCut            ....  1.000e-11 Eh

Convergence Tolerance:
 Convergence Check Mode ConvCheckMode   .... Total+1el-Energy
 Convergence forced     ConvForced      .... 0
 Energy Change          TolE            ....  1.000e-06 Eh
 1-El. energy change                    ....  1.000e-03 Eh
 Orbital Gradient       TolG            ....  5.000e-05
 Orbital Rotation angle TolX            ....  5.000e-05
 DIIS Error             TolErr          ....  1.000e-06


Diagonalization of the overlap matrix:
Smallest eigenvalue                        ... 2.980e-04
Time for diagonalization                   ...    0.008 sec
Threshold for overlap eigenvalues          ... 1.000e-08
Number of eigenvalues below threshold      ... 0
Time for construction of square roots      ...    0.006 sec
Total time needed                          ...    0.014 sec

Time for model grid setup =    0.368 sec

------------------------------
INITIAL GUESS: MODEL POTENTIAL
------------------------------
Loading Hartree-Fock densities                     ... done
Calculating cut-offs                               ... done
Initializing the effective Hamiltonian             ... done
Setting up the integral package (SHARK)            ... done
Starting the Coulomb interaction                   ... done (   0.6 sec)
Reading the grid                                   ... done
Mapping shells                                     ... done
Starting the XC term evaluation                    ... done (   0.5 sec)
  promolecular density results
     # of electrons  =     72.993441416
     EX              =    -61.323430867
     EC              =     -2.472455028
     EX+EC           =    -63.795885895
Transforming the Hamiltonian                       ... done (   0.0 sec)
Diagonalizing the Hamiltonian                      ... done (   0.0 sec)
Back transforming the eigenvectors                 ... done (   0.0 sec)
Now organizing SCF variables                       ... done
                      ------------------
                      INITIAL GUESS DONE (   1.5 sec)
                      ------------------
-------------------
DFT GRID GENERATION
-------------------

General Integration Accuracy     IntAcc      ... 4.388
Radial Grid Type                 RadialGrid  ... OptM3 with GC (2021)
Angular Grid (max. ang.)         AngularGrid ... 4 (Lebedev-302)
Angular grid pruning method      GridPruning ... 4 (adaptive)
Weight generation scheme         WeightScheme... Becke
Basis function cutoff            BFCut       ... 1.0000e-10
Integration weight cutoff        WCut        ... 1.0000e-14
Angular grids for H and He will be reduced by one unit
Partially contracted basis set               ... off
Rotationally invariant grid construction     ... off

Total number of grid points                  ...    86276
Total number of batches                      ...     1358
Average number of points per batch           ...       63
Average number of grid points per atom       ...     4793
Time for grid setup =    1.334 sec

--------------------
COSX GRID GENERATION
--------------------

GRIDX 1
-------
General Integration Accuracy     IntAcc      ... 3.816
Radial Grid Type                 RadialGrid  ... OptM3 with GC (2021)
Angular Grid (max. ang.)         AngularGrid ... 1 (Lebedev-50)
Angular grid pruning method      GridPruning ... 4 (adaptive)
Weight generation scheme         WeightScheme... Becke
Basis function cutoff            BFCut       ... 1.0000e-10
Integration weight cutoff        WCut        ... 1.0000e-14
Angular grids for H and He will be reduced by one unit
Partially contracted basis set               ... on
Rotationally invariant grid construction     ... off

Total number of grid points                  ...    11043
Total number of batches                      ...      179
Average number of points per batch           ...       61
Average number of grid points per atom       ...      614
UseSFitting                                  ... on

GRIDX 2
-------
General Integration Accuracy     IntAcc      ... 4.020
Radial Grid Type                 RadialGrid  ... OptM3 with GC (2021)
Angular Grid (max. ang.)         AngularGrid ... 2 (Lebedev-110)
Angular grid pruning method      GridPruning ... 4 (adaptive)
Weight generation scheme         WeightScheme... Becke
Basis function cutoff            BFCut       ... 1.0000e-10
Integration weight cutoff        WCut        ... 1.0000e-14
Angular grids for H and He will be reduced by one unit
Partially contracted basis set               ... on
Rotationally invariant grid construction     ... off

Total number of grid points                  ...    24407
Total number of batches                      ...      389
Average number of points per batch           ...       62
Average number of grid points per atom       ...     1356
UseSFitting                                  ... on

GRIDX 3
-------
General Integration Accuracy     IntAcc      ... 4.338
Radial Grid Type                 RadialGrid  ... OptM3 with GC (2021)
Angular Grid (max. ang.)         AngularGrid ... 3 (Lebedev-194)
Angular grid pruning method      GridPruning ... 4 (adaptive)
Weight generation scheme         WeightScheme... Becke
Basis function cutoff            BFCut       ... 1.0000e-10
Integration weight cutoff        WCut        ... 1.0000e-14
Angular grids for H and He will be reduced by one unit
Partially contracted basis set               ... on
Rotationally invariant grid construction     ... off

Total number of grid points                  ...    53738
Total number of batches                      ...      849
Average number of points per batch           ...       63
Average number of grid points per atom       ...     2985
UseSFitting                                  ... on

Time for X-Grid setup             =    1.811 sec

--------------
SCF ITERATIONS
--------------
ITER       Energy         Delta-E        Max-DP      RMS-DP      [F,P]     Damp
               ***  Starting incremental Fock matrix formation  ***
  0   -475.3523219407   0.000000000000 0.32073886  0.00535670  0.2154769 0.7000
  1   -475.3566768864  -0.004354945666 0.07281948  0.00192549  0.1238404 0.7000
                               ***Turning on DIIS***
  2   -475.5385851087  -0.181908222362 0.16612215  0.00406150  0.0320442 0.0000
  3   -475.5821743705  -0.043589261802 0.01019979  0.00023831  0.1186887 0.7000
  4   -475.5925650304  -0.010390659870 0.00947105  0.00024422  0.1056923 0.7000
  5   -475.6018688639  -0.009303833554 0.03160194  0.00084491  0.0935955 0.0000
  6   -475.6278293338  -0.025960469868 0.04069136  0.00108363  0.0556754 0.0000
  7   -475.6407393034  -0.012909969615 0.01413311  0.00045341  0.0139817 0.0000
  8   -475.6418355475  -0.001096244021 0.00548641  0.00013576  0.0056671 0.0000
                      *** Initiating the SOSCF procedure ***
                           *** Shutting down DIIS ***
                      *** Re-Reading the Fockian *** 
                      *** Removing any level shift *** 
ITER      Energy       Delta-E        Grad      Rot      Max-DP    RMS-DP
  9   -475.64192364  -0.0000880959  0.000658  0.000658  0.001640  0.000045
               *** Restarting incremental Fock matrix formation ***
 10   -475.64182099   0.0001026487  0.000330  0.001107  0.001529  0.000033
 11   -475.64181473   0.0000062611  0.001415  0.001064  0.001187  0.000019
 12   -475.64182181  -0.0000070788  0.000178  0.000544  0.000554  0.000016
 13   -475.64182075   0.0000010596  0.000316  0.000386  0.000287  0.000010
 14   -475.64182223  -0.0000014769  0.000049  0.000074  0.000185  0.000003
                 **** Energy Check signals convergence ****
              ***Rediagonalizing the Fockian in SOSCF/NRSCF***

               *****************************************************
               *                     SUCCESS                       *
               *           SCF CONVERGED AFTER  15 CYCLES          *
               *****************************************************

Old exchange energy                            =    -12.297409853 Eh
New exchange energy                            =    -12.297451783 Eh
Exchange energy change after final integration =     -0.000041930 Eh
Total energy after final integration           =   -475.641864119 Eh
Final COS-X integration done in                =     8.551 sec

----------------
TOTAL SCF ENERGY
----------------

Total Energy       :         -475.64186412 Eh          -12942.87313 eV

Components:
Nuclear Repulsion  :          358.13173161 Eh            9745.25986 eV
Electronic Energy  :         -833.77359573 Eh          -22688.13298 eV
One Electron Energy:        -1343.36156592 Eh          -36554.72662 eV
Two Electron Energy:          509.58797020 Eh           13866.59363 eV
Max COSX asymmetry :            0.00000251 Eh               0.00007 eV

Virial components:
Potential Energy   :         -947.04057077 Eh          -25770.28407 eV
Kinetic Energy     :          471.39870666 Eh           12827.41094 eV
Virial Ratio       :            2.00900121


DFT components:
N(Alpha)           :       36.000001965550 electrons
N(Beta)            :       36.000001965550 electrons
N(Total)           :       72.000003931101 electrons
E(X)               :      -48.991945662398 Eh       
E(C)               :       -2.881998620263 Eh       
E(XC)              :      -51.873944282661 Eh       
DFET-embed. en.    :        0.000000000000 Eh       

---------------
SCF CONVERGENCE
---------------

  Last Energy change         ...    4.0735e-08  Tolerance :   1.0000e-06
  Last MAX-Density change    ...    3.9968e-15  Tolerance :   1.0000e-05
  Last RMS-Density change    ...    5.3677e-17  Tolerance :   1.0000e-06
  Last Orbital Gradient      ...    7.4584e-05  Tolerance :   5.0000e-05
  Last Orbital Rotation      ...    4.9330e-05  Tolerance :   5.0000e-05

             **** THE GBW FILE WAS UPDATED (e_c_12_freq.gbw) ****
             **** DENSITY e_c_12_freq.scfp WAS UPDATED ****
             **** ENERGY FILE WAS UPDATED (e_c_12_freq.en.tmp) ****
             **** THE GBW FILE WAS UPDATED (e_c_12_freq.gbw) ****
             **** DENSITY e_c_12_freq.scfp WAS UPDATED ****
----------------
ORBITAL ENERGIES
----------------

  NO   OCC          E(Eh)            E(eV) 
   0   2.0000     -19.668691      -535.2123 
   1   2.0000     -19.668613      -535.2102 
   2   2.0000     -15.001799      -408.2197 
   3   2.0000     -10.208946      -277.7996 
   4   2.0000     -10.201102      -277.5861 
   5   2.0000     -10.200641      -277.5736 
   6   2.0000     -10.200009      -277.5563 
   7   2.0000     -10.198385      -277.5122 
   8   2.0000     -10.198043      -277.5029 
   9   2.0000     -10.197431      -277.4862 
  10   2.0000      -1.689925       -45.9852 
  11   2.0000      -1.568819       -42.6897 
  12   2.0000      -1.009435       -27.4681 
  13   2.0000      -0.970065       -26.3968 
  14   2.0000      -0.966924       -26.3113 
  15   2.0000      -0.937985       -25.5239 
  16   2.0000      -0.863220       -23.4894 
  17   2.0000      -0.779204       -21.2032 
  18   2.0000      -0.759952       -20.6794 
  19   2.0000      -0.755402       -20.5555 
  20   2.0000      -0.755204       -20.5501 
  21   2.0000      -0.691966       -18.8293 
  22   2.0000      -0.613450       -16.6928 
  23   2.0000      -0.595024       -16.1914 
  24   2.0000      -0.525529       -14.3004 
  25   2.0000      -0.477535       -12.9944 
  26   2.0000      -0.467341       -12.7170 
  27   2.0000      -0.439286       -11.9536 
  28   2.0000      -0.435681       -11.8555 
  29   2.0000      -0.421518       -11.4701 
  30   2.0000      -0.402490       -10.9523 
  31   2.0000      -0.370491       -10.0816 
  32   2.0000      -0.361664        -9.8414 
  33   2.0000      -0.353477        -9.6186 
  34   2.0000      -0.272579        -7.4173 
  35   2.0000      -0.254865        -6.9352 
  36   0.0000      -0.502499       -13.6737 
  37   0.0000      -0.440146       -11.9770 
  38   0.0000      -0.188093        -5.1183 
  39   0.0000      -0.024463        -0.6657 
  40   0.0000      -0.017507        -0.4764 
  41   0.0000       0.047824         1.3013 
  42   0.0000       0.065008         1.7690 
  43   0.0000       0.079424         2.1612 
  44   0.0000       0.105742         2.8774 
  45   0.0000       0.109209         2.9717 
  46   0.0000       0.117463         3.1963 
  47   0.0000       0.135566         3.6889 
  48   0.0000       0.150083         4.0840 
  49   0.0000       0.150681         4.1002 
  50   0.0000       0.160671         4.3721 
  51   0.0000       0.182107         4.9554 
  52   0.0000       0.216291         5.8856 
  53   0.0000       0.276530         7.5248 
  54   0.0000       0.286029         7.7833 
  55   0.0000       0.287962         7.8358 
  56   0.0000       0.307527         8.3682 
  57   0.0000       0.310559         8.4507 
  58   0.0000       0.312722         8.5096 
  59   0.0000       0.328389         8.9359 
  60   0.0000       0.347323         9.4511 
  61   0.0000       0.376861        10.2549 
  62   0.0000       0.402449        10.9512 
  63   0.0000       0.403982        10.9929 
  64   0.0000       0.421596        11.4722 
  65   0.0000       0.426493        11.6055 
  66   0.0000       0.446704        12.1554 
  67   0.0000       0.467734        12.7277 
  68   0.0000       0.477689        12.9986 
  69   0.0000       0.487606        13.2684 
  70   0.0000       0.518978        14.1221 
  71   0.0000       0.523224        14.2376 
  72   0.0000       0.527455        14.3528 
  73   0.0000       0.561225        15.2717 
  74   0.0000       0.561745        15.2859 
  75   0.0000       0.574878        15.6432 
  76   0.0000       0.584314        15.9000 
  77   0.0000       0.595490        16.2041 
  78   0.0000       0.621731        16.9182 
  79   0.0000       0.624424        16.9914 
  80   0.0000       0.627634        17.0788 
  81   0.0000       0.636976        17.3330 
  82   0.0000       0.657628        17.8950 
  83   0.0000       0.658025        17.9058 
  84   0.0000       0.660178        17.9644 
  85   0.0000       0.662029        18.0147 
  86   0.0000       0.666537        18.1374 
  87   0.0000       0.675528        18.3821 
  88   0.0000       0.681355        18.5406 
  89   0.0000       0.687175        18.6990 
  90   0.0000       0.719461        19.5775 
  91   0.0000       0.721986        19.6462 
  92   0.0000       0.729549        19.8520 
  93   0.0000       0.740547        20.1513 
  94   0.0000       0.776516        21.1301 
  95   0.0000       0.805354        21.9148 
  96   0.0000       0.836049        22.7501 
  97   0.0000       0.902122        24.5480 
  98   0.0000       0.951130        25.8816 
  99   0.0000       0.990025        26.9400 
 100   0.0000       1.035209        28.1695 
 101   0.0000       1.042614        28.3710 
 102   0.0000       1.080178        29.3932 
 103   0.0000       1.112417        30.2704 
 104   0.0000       1.197346        32.5814 
 105   0.0000       1.231570        33.5127 
 106   0.0000       1.240330        33.7511 
 107   0.0000       1.259802        34.2810 
 108   0.0000       1.264727        34.4150 
 109   0.0000       1.279579        34.8191 
 110   0.0000       1.295958        35.2648 
 111   0.0000       1.351418        36.7740 
 112   0.0000       1.452751        39.5314 
 113   0.0000       1.482216        40.3331 
 114   0.0000       1.485148        40.4129 
 115   0.0000       1.491682        40.5907 
 116   0.0000       1.510548        41.1041 
 117   0.0000       1.535580        41.7852 
 118   0.0000       1.640180        44.6316 
 119   0.0000       1.658545        45.1313 
 120   0.0000       1.670821        45.4653 
 121   0.0000       1.676616        45.6230 
 122   0.0000       1.717088        46.7243 
 123   0.0000       1.729713        47.0679 
 124   0.0000       1.739258        47.3276 
 125   0.0000       1.742758        47.4228 
 126   0.0000       1.756988        47.8101 
 127   0.0000       1.760548        47.9070 
 128   0.0000       1.775419        48.3116 
 129   0.0000       1.789448        48.6933 
 130   0.0000       1.803773        49.0831 
 131   0.0000       1.820555        49.5398 
 132   0.0000       1.861596        50.6566 
 133   0.0000       1.906665        51.8830 
 134   0.0000       1.940554        52.8051 
 135   0.0000       1.974868        53.7389 
 136   0.0000       1.985572        54.0302 
 137   0.0000       2.020096        54.9696 
 138   0.0000       2.037976        55.4562 
 139   0.0000       2.042149        55.5697 
 140   0.0000       2.102187        57.2034 
 141   0.0000       2.106857        57.3305 
 142   0.0000       2.127300        57.8868 
 143   0.0000       2.138993        58.2050 
 144   0.0000       2.150914        58.5294 
 145   0.0000       2.151808        58.5537 
 146   0.0000       2.162011        58.8313 
 147   0.0000       2.232005        60.7359 
 148   0.0000       2.234909        60.8150 
 149   0.0000       2.282788        62.1178 
 150   0.0000       2.288631        62.2768 
 151   0.0000       2.307223        62.7827 
 152   0.0000       2.319372        63.1133 
 153   0.0000       2.322349        63.1943 
 154   0.0000       2.354639        64.0730 
 155   0.0000       2.449076        66.6428 
 156   0.0000       2.473960        67.3199 
 157   0.0000       2.483241        67.5724 
 158   0.0000       2.501652        68.0734 
 159   0.0000       2.592777        70.5531 
 160   0.0000       2.598619        70.7120 
 161   0.0000       2.611354        71.0586 
 162   0.0000       2.646815        72.0235 
 163   0.0000       2.728301        74.2409 
 164   0.0000       2.732456        74.3539 
 165   0.0000       2.737037        74.4786 
 166   0.0000       2.817181        76.6594 
 167   0.0000       2.846561        77.4589 
 168   0.0000       2.878164        78.3188 
 169   0.0000       2.894579        78.7655 
 170   0.0000       2.929609        79.7187 
 171   0.0000       2.967811        80.7583 
 172   0.0000       3.007469        81.8374 
 173   0.0000       3.068206        83.4901 
 174   0.0000       3.138703        85.4085 
 175   0.0000       3.143064        85.5271 
 176   0.0000       3.224021        87.7301 
 177   0.0000       3.261449        88.7485 
 178   0.0000       3.518030        95.7305 
 179   0.0000       3.633246        98.8657 

                    ********************************
                    * MULLIKEN POPULATION ANALYSIS *
                    ********************************

-----------------------
MULLIKEN ATOMIC CHARGES
-----------------------
   0 C :   -0.053263
   1 C :   -0.002235
   2 C :    0.033865
   3 C :    0.016903
   4 C :    0.033814
   5 C :   -0.001149
   6 C :    0.097651
   7 H :    0.002306
   8 H :    0.018749
   9 H :    0.021749
  10 H :   -0.041768
  11 H :   -0.029317
  12 H :   -0.029048
  13 H :   -0.028477
  14 H :   -0.039779
  15 N :    0.586461
  16 O :    0.206673
  17 O :    0.206866
Sum of atomic charges:    1.0000000

--------------------------------
MULLIKEN REDUCED ORBITAL CHARGES
--------------------------------
  0 C s       :     3.081007  s :     3.081007
      pz      :     0.988768  p :     2.929234
      px      :     0.969426
      py      :     0.971040
      dz2     :     0.011151  d :     0.043022
      dxz     :     0.007376
      dyz     :     0.012544
      dx2y2   :     0.005956
      dxy     :     0.005995
  1 C s       :     3.207568  s :     3.207568
      pz      :     0.944032  p :     2.760115
      px      :     0.973827
      py      :     0.842256
      dz2     :     0.010657  d :     0.034552
      dxz     :     0.007040
      dyz     :     0.009901
      dx2y2   :     0.003389
      dxy     :     0.003566
  2 C s       :     3.153256  s :     3.153256
      pz      :     0.878790  p :     2.776848
      px      :     0.967546
      py      :     0.930512
      dz2     :     0.008702  d :     0.036031
      dxz     :     0.005967
      dyz     :     0.011610
      dx2y2   :     0.004764
      dxy     :     0.004988
  3 C s       :     3.153496  s :     3.153496
      pz      :     0.854629  p :     2.795067
      px      :     0.992809
      py      :     0.947629
      dz2     :     0.009110  d :     0.034535
      dxz     :     0.004175
      dyz     :     0.010348
      dx2y2   :     0.005512
      dxy     :     0.005390
  4 C s       :     3.155400  s :     3.155400
      pz      :     0.962593  p :     2.775021
      px      :     0.959080
      py      :     0.853348
      dz2     :     0.011004  d :     0.035765
      dxz     :     0.007464
      dyz     :     0.010113
      dx2y2   :     0.003514
      dxy     :     0.003669
  5 C s       :     3.202645  s :     3.202645
      pz      :     0.834942  p :     2.763582
      px      :     0.984818
      py      :     0.943822
      dz2     :     0.008699  d :     0.034923
      dxz     :     0.005661
      dyz     :     0.011254
      dx2y2   :     0.004550
      dxy     :     0.004758
  6 C s       :     2.911546  s :     2.911546
      pz      :     0.963020  p :     2.961526
      px      :     1.004595
      py      :     0.993910
      dz2     :     0.007704  d :     0.029278
      dxz     :     0.003960
      dyz     :     0.007330
      dx2y2   :     0.004361
      dxy     :     0.005923
  7 H s       :     0.974035  s :     0.974035
      pz      :     0.009114  p :     0.023659
      px      :     0.005941
      py      :     0.008605
  8 H s       :     0.957143  s :     0.957143
      pz      :     0.004859  p :     0.024108
      px      :     0.013321
      py      :     0.005928
  9 H s       :     0.954071  s :     0.954071
      pz      :     0.004578  p :     0.024181
      px      :     0.008292
      py      :     0.011311
 10 H s       :     1.018484  s :     1.018484
      pz      :     0.003746  p :     0.023284
      px      :     0.006477
      py      :     0.013061
 11 H s       :     1.006005  s :     1.006005
      pz      :     0.010660  p :     0.023312
      px      :     0.005760
      py      :     0.006892
 12 H s       :     1.005772  s :     1.005772
      pz      :     0.013108  p :     0.023276
      px      :     0.004836
      py      :     0.005332
 13 H s       :     1.005157  s :     1.005157
      pz      :     0.003809  p :     0.023320
      px      :     0.006387
      py      :     0.013124
 14 H s       :     1.016489  s :     1.016489
      pz      :     0.010592  p :     0.023289
      px      :     0.005822
      py      :     0.006875
 15 N s       :     3.212437  s :     3.212437
      pz      :     0.934465  p :     3.091263
      px      :     1.082347
      py      :     1.074451
      dz2     :     0.022099  d :     0.109839
      dxz     :     0.041146
      dyz     :     0.041074
      dx2y2   :     0.002763
      dxy     :     0.002756
 16 O s       :     3.873232  s :     3.873232
      pz      :     1.189431  p :     3.887005
      px      :     1.268105
      py      :     1.429469
      dz2     :     0.012135  d :     0.033090
      dxz     :     0.009638
      dyz     :     0.008738
      dx2y2   :     0.001263
      dxy     :     0.001316
 17 O s       :     3.873083  s :     3.873083
      pz      :     1.116494  p :     3.886941
      px      :     1.354104
      py      :     1.416343
      dz2     :     0.013171  d :     0.033109
      dxz     :     0.009313
      dyz     :     0.009833
      dx2y2   :     0.000401
      dxy     :     0.000391


                     *******************************
                     * LOEWDIN POPULATION ANALYSIS *
                     *******************************

----------------------
LOEWDIN ATOMIC CHARGES
----------------------
   0 C :   -0.019349
   1 C :   -0.028445
   2 C :   -0.023679
   3 C :   -0.031171
   4 C :   -0.022747
   5 C :   -0.031785
   6 C :   -0.043301
   7 H :    0.025469
   8 H :    0.033031
   9 H :    0.034635
  10 H :    0.020164
  11 H :    0.022814
  12 H :    0.020362
  13 H :    0.023309
  14 H :    0.020693
  15 N :    0.483116
  16 O :    0.258334
  17 O :    0.258550

-------------------------------
LOEWDIN REDUCED ORBITAL CHARGES
-------------------------------
  0 C s       :     2.857539  s :     2.857539
      pz      :     1.040300  p :     3.055866
      px      :     0.966542
      py      :     1.049024
      dz2     :     0.028923  d :     0.105944
      dxz     :     0.015829
      dyz     :     0.033015
      dx2y2   :     0.013844
      dxy     :     0.014333
  1 C s       :     2.856767  s :     2.856767
      pz      :     1.060586  p :     3.080548
      px      :     0.994711
      py      :     1.025251
      dz2     :     0.030858  d :     0.091131
      dxz     :     0.016619
      dyz     :     0.028047
      dx2y2   :     0.007500
      dxy     :     0.008107
  2 C s       :     2.854947  s :     2.854947
      pz      :     1.053304  p :     3.075072
      px      :     0.979896
      py      :     1.041872
      dz2     :     0.024775  d :     0.093660
      dxz     :     0.013676
      dyz     :     0.031554
      dx2y2   :     0.011462
      dxy     :     0.012194
  3 C s       :     2.860121  s :     2.860121
      pz      :     1.038721  p :     3.081823
      px      :     0.997141
      py      :     1.045961
      dz2     :     0.024505  d :     0.089226
      dxz     :     0.009698
      dyz     :     0.028359
      dx2y2   :     0.013187
      dxy     :     0.013477
  4 C s       :     2.855993  s :     2.855993
      pz      :     1.070527  p :     3.073849
      px      :     0.977923
      py      :     1.025399
      dz2     :     0.030848  d :     0.092906
      dxz     :     0.017672
      dyz     :     0.028444
      dx2y2   :     0.007672
      dxy     :     0.008270
  5 C s       :     2.856168  s :     2.856168
      pz      :     1.050131  p :     3.083641
      px      :     0.996380
      py      :     1.037129
      dz2     :     0.024874  d :     0.091976
      dxz     :     0.013087
      dyz     :     0.031426
      dx2y2   :     0.010987
      dxy     :     0.011601
  6 C s       :     2.823204  s :     2.823204
      pz      :     1.024688  p :     3.144529
      px      :     1.064705
      py      :     1.055136
      dz2     :     0.020600  d :     0.075568
      dxz     :     0.009156
      dyz     :     0.019567
      dx2y2   :     0.011095
      dxy     :     0.015150
  7 H s       :     0.908638  s :     0.908638
      pz      :     0.026744  p :     0.065893
      px      :     0.015344
      py      :     0.023806
  8 H s       :     0.901383  s :     0.901383
      pz      :     0.013529  p :     0.065586
      px      :     0.036972
      py      :     0.015085
  9 H s       :     0.899886  s :     0.899886
      pz      :     0.012765  p :     0.065479
      px      :     0.021154
      py      :     0.031561
 10 H s       :     0.911134  s :     0.911134
      pz      :     0.012098  p :     0.068702
      px      :     0.019323
      py      :     0.037280
 11 H s       :     0.908893  s :     0.908893
      pz      :     0.030401  p :     0.068293
      px      :     0.017237
      py      :     0.020655
 12 H s       :     0.910763  s :     0.910763
      pz      :     0.037370  p :     0.068876
      px      :     0.014915
      py      :     0.016591
 13 H s       :     0.908298  s :     0.908298
      pz      :     0.012347  p :     0.068393
      px      :     0.018897
      py      :     0.037149
 14 H s       :     0.910467  s :     0.910467
      pz      :     0.030385  p :     0.068839
      px      :     0.017698
      py      :     0.020756
 15 N s       :     3.031113  s :     3.031113
      pz      :     1.144710  p :     3.268354
      px      :     1.072736
      py      :     1.050908
      dz2     :     0.053567  d :     0.217417
      dxz     :     0.082518
      dyz     :     0.073252
      dx2y2   :     0.004123
      dxy     :     0.003956
 16 O s       :     3.601968  s :     3.601968
      pz      :     1.335756  p :     4.081168
      px      :     1.320724
      py      :     1.424689
      dz2     :     0.024930  d :     0.058529
      dxz     :     0.018616
      dyz     :     0.011406
      dx2y2   :     0.001889
      dxy     :     0.001689
 17 O s       :     3.601779  s :     3.601779
      pz      :     1.291450  p :     4.081109
      px      :     1.373043
      py      :     1.416617
      dz2     :     0.030306  d :     0.058563
      dxz     :     0.013588
      dyz     :     0.013633
      dx2y2   :     0.000506
      dxy     :     0.000531


                      *****************************
                      * MAYER POPULATION ANALYSIS *
                      *****************************

  NA   - Mulliken gross atomic population
  ZA   - Total nuclear charge
  QA   - Mulliken gross atomic charge
  VA   - Mayer's total valence
  BVA  - Mayer's bonded valence
  FA   - Mayer's free valence

  ATOM       NA         ZA         QA         VA         BVA        FA
  0 C      6.0533     6.0000    -0.0533     4.0018     4.0018    -0.0000
  1 C      6.0022     6.0000    -0.0022     3.8553     3.8553    -0.0000
  2 C      5.9661     6.0000     0.0339     3.8356     3.8356    -0.0000
  3 C      5.9831     6.0000     0.0169     3.8385     3.8385    -0.0000
  4 C      5.9662     6.0000     0.0338     3.8343     3.8343    -0.0000
  5 C      6.0011     6.0000    -0.0011     3.8540     3.8540     0.0000
  6 C      5.9023     6.0000     0.0977     3.9031     3.9031    -0.0000
  7 H      0.9977     1.0000     0.0023     0.9975     0.9975    -0.0000
  8 H      0.9813     1.0000     0.0187     0.9898     0.9898    -0.0000
  9 H      0.9783     1.0000     0.0217     0.9888     0.9888    -0.0000
 10 H      1.0418     1.0000    -0.0418     0.9845     0.9845    -0.0000
 11 H      1.0293     1.0000    -0.0293     0.9756     0.9756    -0.0000
 12 H      1.0290     1.0000    -0.0290     0.9763     0.9763     0.0000
 13 H      1.0285     1.0000    -0.0285     0.9760     0.9760    -0.0000
 14 H      1.0398     1.0000    -0.0398     0.9843     0.9843     0.0000
 15 N      6.4135     7.0000     0.5865     4.0004     4.0004    -0.0000
 16 O      7.7933     8.0000     0.2067     2.5290     2.5290    -0.0000
 17 O      7.7931     8.0000     0.2069     2.5294     2.5294    -0.0000

  Mayer bond orders larger than 0.100000
B(  0-C ,  1-C ) :   1.3787 B(  0-C ,  5-C ) :   1.3981 B(  0-C ,  6-C ) :   1.0706 
B(  1-C ,  2-C ) :   1.3964 B(  1-C , 10-H ) :   0.9904 B(  2-C ,  3-C ) :   1.3728 
B(  2-C , 11-H ) :   0.9868 B(  3-C ,  4-C ) :   1.3900 B(  3-C , 12-H ) :   0.9855 
B(  4-C ,  5-C ) :   1.3783 B(  4-C , 13-H ) :   0.9854 B(  5-C , 14-H ) :   0.9867 
B(  6-C ,  7-H ) :   0.9578 B(  6-C ,  8-H ) :   0.9519 B(  6-C ,  9-H ) :   0.9504 
B( 15-N , 16-O ) :   2.0000 B( 15-N , 17-O ) :   2.0004 B( 16-O , 17-O ) :   0.5290 


-------
TIMINGS
-------

Total SCF time: 0 days 0 hours 1 min 19 sec 

Total time                  ....      79.634 sec
Sum of individual times     ....      78.968 sec  ( 99.2%)

Fock matrix formation       ....      73.977 sec  ( 92.9%)
  Split-RI-J                ....       8.272 sec  ( 11.2% of F)
  Chain of spheres X        ....      51.045 sec  ( 69.0% of F)
  XC integration            ....      14.465 sec  ( 19.6% of F)
    Basis function eval.    ....       5.369 sec  ( 37.1% of XC)
    Density eval.           ....       3.991 sec  ( 27.6% of XC)
    XC-Functional eval.     ....       1.412 sec  (  9.8% of XC)
    XC-Potential eval.      ....       2.757 sec  ( 19.1% of XC)
Diagonalization             ....       0.099 sec  (  0.1%)
Density matrix formation    ....       0.016 sec  (  0.0%)
Population analysis         ....       0.040 sec  (  0.1%)
Initial guess               ....       1.104 sec  (  1.4%)
Orbital Transformation      ....       0.000 sec  (  0.0%)
Orbital Orthonormalization  ....       0.000 sec  (  0.0%)
DIIS solution               ....       0.157 sec  (  0.2%)
SOSCF solution              ....       0.062 sec  (  0.1%)
Grid generation             ....       3.513 sec  (  4.4%)

Maximum memory used throughout the entire SCF-calculation: 68.9 MB


-------------------------------------------------------------------------------
                          DFT DISPERSION CORRECTION                            
                                                                               
                                 DFTD4 V2.5                                    
-------------------------------------------------------------------------------
The B3LYP functional is recognized
Active option DFTDOPT                   ...         5   

Starting D4
-------------------------   ----------------
Dispersion correction           -0.021555100
-------------------------   ----------------


-------------------------   --------------------
FINAL SINGLE POINT ENERGY      -475.663419218522
-------------------------   --------------------


                            ***************************************
                            *     ORCA property calculations      *
                            ***************************************

                                    ---------------------
                                    Active property flags
                                    ---------------------
   (+) Dipole Moment


------------------------------------------------------------------------------
                       ORCA ELECTRIC PROPERTIES CALCULATION
------------------------------------------------------------------------------

Dipole Moment Calculation                       ... on
Quadrupole Moment Calculation                   ... off
Polarizability Calculation                      ... off
GBWName                                         ... e_c_12_freq.gbw
Electron density                                ... e_c_12_freq.scfp
The origin for moment calculation is the CENTER OF MASS  = (-13.705516, -0.811420 -11.134101)

-------------
DIPOLE MOMENT
-------------
                                X             Y             Z
Electronic contribution:    -18.24466     -10.48339    -104.31823
Nuclear contribution   :     11.87975       7.49169      70.32575
                        -----------------------------------------
Total Dipole Moment    :     -6.36491      -2.99169     -33.99248
                        -----------------------------------------
Magnitude (a.u.)       :     34.71240
Magnitude (Debye)      :     88.23191



--------------------
Rotational spectrum 
--------------------
 
Rotational constants in cm-1:     0.153233     0.000711     0.000708 
Rotational constants in MHz :  4593.821503    21.311247    21.219950 

 Dipole components along the rotational axes: 
x,y,z [a.u.] :   -34.711173     0.236573     0.170864 
x,y,z [Debye]:   -88.228791     0.601320     0.434303 

 

-------------------------------------------------------------------------------
                               ORCA SCF HESSIAN
-------------------------------------------------------------------------------

                   --------- SHARK INITIALIZATION DONE ---------

Hessian of the Kohn-Sham DFT energy:
Kohn-Sham wavefunction type                      ... RKS
Hartree-Fock exchange scaling                    ...    0.200
Number of operators                              ...    1
Number of atoms                                  ...   18
Basis set dimensions                             ...  180
Integral neglect threshold                       ... 1.0e-10
Integral primitive cutoff                        ... 1.0e-11

Setting up DFT Hessian calculations              ... 

HESS GRID
---------

General Integration Accuracy     IntAcc      ... 4.629
Radial Grid Type                 RadialGrid  ... OptM3 with GC (2021)
Angular Grid (max. ang.)         AngularGrid ... 5 (Lebedev-434)
Angular grid pruning method      GridPruning ... 4 (adaptive)
Weight generation scheme         WeightScheme... Becke
Basis function cutoff            BFCut       ... 1.0000e-10
Integration weight cutoff        WCut        ... 1.0000e-14
Angular grids for H and He will be reduced by one unit
Partially contracted basis set               ... off
Rotationally invariant grid construction     ... off

Total number of grid points                  ...   134327
Total number of batches                      ...     2107
Average number of points per batch           ...       63
Average number of grid points per atom       ...     7463

Building densities                               ... done   (      0.0 sec)
Calculating rho(r) on the grid                   ... done   (      1.1 sec)
Building xc-kernel on the grid                   ... done   (      0.3 sec)
                                                     done   (      3.4 sec)

Nuclear repulsion Hessian  (SHARK)               ... done   (      0.0 sec)

----------------------------------------------
Forming right-hand sides of CP-SCF equations     ...
----------------------------------------------
One electron integral derivatives  (SHARK)       ... done   (      0.2 sec)
Transforming the overlap derivative matrices     ... done   (      0.1 sec)
Making the Q(x) pseudodensities                  ... done   (      0.0 sec)
Adding the E*S(x)*S(y) terms to the Hessian      ... done   (      0.1 sec)
Calculating energy weighted overlap derivatives  ... done   (      1.2 sec)
Two electron integral derivatives (SHARK-RI)     ... done   (     20.9 sec)
Exchange-correlation integral derivatives        ... done   (    103.2 sec)
tr(F(y)Q(x)) contribution to the Hessian         ... done   (      0.0 sec)
Response fock operator R(S(x)) (SHARK-RIJCOSX)   ... done   (     24.3 sec)
XC Response fock operator R(S(x))                ... done   (     40.6 sec)
tr(F(y)S(x)) contribution to the Hessian         ... done   (      0.0 sec)
Transforming and finalizing RHSs                 ... done   (      0.1 sec)

----------------------------------------------
Solving the CP-SCF equations (RIJCOSX)           ...
----------------------------------------------
     CP-SCF ITERATION   0:   1.5685e+00 (  17.2 sec   0/ 54 done)
     CP-SCF ITERATION   1:   7.8937e-02 (  16.1 sec   0/ 54 done)
     CP-SCF ITERATION   2:   3.4979e-02 (  17.2 sec   0/ 54 done)
     CP-SCF ITERATION   3:   6.7137e-03 (  16.2 sec  20/ 54 done)
     CP-SCF ITERATION   4:   2.3789e-03 (  12.1 sec  42/ 54 done)
     CP-SCF ITERATION   5:   1.1148e-03 (   7.6 sec  53/ 54 done)
     CP-SCF ITERATION   6:   3.2422e-04 (   3.7 sec  54/ 54 done)
                    *** THE CP-SCF HAS CONVERGED ***

                                                 ... done   (     90.7 sec)
Forming perturbed density Hessian contributions  ... done   (      0.1 sec)
2nd integral derivative contribs (SHARK-RI)      ... done   (    137.2 sec)
Exchange-correlation Hessian                     ... done   (     74.1 sec)
Dispersion correction in the Hessian             ... Starting D4


------------------- 
Dispersion Gradient 
------------------- 
   1  :   -0.000021604    0.000110835    0.000277908
   2  :   -0.000164722    0.000327530   -0.000148942
   3  :   -0.000126415    0.000175080   -0.000458938
   4  :    0.000033966   -0.000169304   -0.000415638
   5  :    0.000177714   -0.000435278   -0.000179796
   6  :    0.000166661   -0.000338791    0.000149623
   7  :   -0.000049020    0.000245633    0.000580602
   8  :   -0.000000996    0.000030834    0.000158461
   9  :   -0.000060824    0.000061716    0.000149312
  10  :    0.000025251    0.000097178    0.000144004
  11  :   -0.000088180    0.000185855   -0.000033777
  12  :   -0.000054966    0.000088023   -0.000147885
  13  :    0.000013315   -0.000065474   -0.000160696
  14  :    0.000069787   -0.000162729   -0.000035091
  15  :    0.000079879   -0.000151189    0.000119984
  16  :    0.000004962   -0.000000712   -0.000000511
  17  :    0.000001489    0.000004490    0.000034134
  18  :   -0.000006295   -0.000003698   -0.000032754

  |G| =    0.000907989

Starting D4


------------------- 
Dispersion Gradient 
------------------- 
   1  :   -0.000022720    0.000111067    0.000277958
   2  :   -0.000164719    0.000327534   -0.000148939
   3  :   -0.000126268    0.000175070   -0.000458807
   4  :    0.000034206   -0.000169324   -0.000415688
   5  :    0.000177914   -0.000435478   -0.000179963
   6  :    0.000166664   -0.000338789    0.000149615
   7  :   -0.000049038    0.000245637    0.000580615
   8  :   -0.000000940    0.000030835    0.000158472
   9  :   -0.000060742    0.000061695    0.000149272
  10  :    0.000025312    0.000097194    0.000144018
  11  :   -0.000088106    0.000185818   -0.000033759
  12  :   -0.000054889    0.000088033   -0.000147924
  13  :    0.000013366   -0.000065468   -0.000160677
  14  :    0.000069853   -0.000162680   -0.000035062
  15  :    0.000079953   -0.000151226    0.000120002
  16  :    0.000004962   -0.000000711   -0.000000511
  17  :    0.000001489    0.000004490    0.000034134
  18  :   -0.000006295   -0.000003698   -0.000032754

  |G| =    0.000907855

Starting D4


------------------- 
Dispersion Gradient 
------------------- 
   1  :   -0.000022278    0.000111768    0.000278167
   2  :   -0.000164720    0.000327530   -0.000148938
   3  :   -0.000126338    0.000175010   -0.000458837
   4  :    0.000034096   -0.000169482   -0.000415788
   5  :    0.000177915   -0.000435717   -0.000180107
   6  :    0.000166659   -0.000338787    0.000149608
   7  :   -0.000049031    0.000245656    0.000580641
   8  :   -0.000000968    0.000030807    0.000158470
   9  :   -0.000060774    0.000061670    0.000149275
  10  :    0.000025275    0.000097137    0.000143986
  11  :   -0.000088125    0.000185773   -0.000033749
  12  :   -0.000054933    0.000087992   -0.000147929
  13  :    0.000013338   -0.000065480   -0.000160640
  14  :    0.000069796   -0.000162685   -0.000035040
  15  :    0.000079935   -0.000151272    0.000120013
  16  :    0.000004962   -0.000000711   -0.000000511
  17  :    0.000001489    0.000004490    0.000034134
  18  :   -0.000006295   -0.000003698   -0.000032754

  |G| =    0.000908150

Starting D4


------------------- 
Dispersion Gradient 
------------------- 
   1  :   -0.000022046    0.000110132    0.000277697
   2  :   -0.000164721    0.000327534   -0.000148943
   3  :   -0.000126346    0.000175140   -0.000458907
   4  :    0.000034076   -0.000169146   -0.000415538
   5  :    0.000177712   -0.000435038   -0.000179650
   6  :    0.000166666   -0.000338792    0.000149630
   7  :   -0.000049027    0.000245613    0.000580575
   8  :   -0.000000968    0.000030863    0.000158463
   9  :   -0.000060791    0.000061741    0.000149309
  10  :    0.000025288    0.000097235    0.000144036
  11  :   -0.000088161    0.000185900   -0.000033788
  12  :   -0.000054922    0.000088064   -0.000147880
  13  :    0.000013344   -0.000065462   -0.000160733
  14  :    0.000069844   -0.000162723   -0.000035113
  15  :    0.000079897   -0.000151143    0.000119974
  16  :    0.000004962   -0.000000712   -0.000000511
  17  :    0.000001489    0.000004490    0.000034134
  18  :   -0.000006295   -0.000003698   -0.000032754

  |G| =    0.000907692

Starting D4


------------------- 
Dispersion Gradient 
------------------- 
   1  :   -0.000022188    0.000111186    0.000279233
   2  :   -0.000164714    0.000327516   -0.000148944
   3  :   -0.000126412    0.000175122   -0.000459419
   4  :    0.000034111   -0.000169438   -0.000416088
   5  :    0.000177902   -0.000435618   -0.000180137
   6  :    0.000166658   -0.000338782    0.000149609
   7  :   -0.000049035    0.000245667    0.000580694
   8  :   -0.000000972    0.000030834    0.000158387
   9  :   -0.000060767    0.000061689    0.000149235
  10  :    0.000025278    0.000097164    0.000143958
  11  :   -0.000088154    0.000185859   -0.000033799
  12  :   -0.000054910    0.000088008   -0.000147864
  13  :    0.000013331   -0.000065424   -0.000160601
  14  :    0.000069808   -0.000162672   -0.000035099
  15  :    0.000079908   -0.000151191    0.000119965
  16  :    0.000004962   -0.000000711   -0.000000511
  17  :    0.000001489    0.000004490    0.000034134
  18  :   -0.000006295   -0.000003698   -0.000032754

  |G| =    0.000908092

Starting D4


------------------- 
Dispersion Gradient 
------------------- 
   1  :   -0.000022137    0.000110716    0.000276627
   2  :   -0.000164728    0.000327548   -0.000148936
   3  :   -0.000126270    0.000175026   -0.000458319
   4  :    0.000034061   -0.000169189   -0.000415238
   5  :    0.000177724   -0.000435135   -0.000179621
   6  :    0.000166667   -0.000338798    0.000149628
   7  :   -0.000049023    0.000245602    0.000580519
   8  :   -0.000000964    0.000030835    0.000158546
   9  :   -0.000060798    0.000061722    0.000149348
  10  :    0.000025285    0.000097207    0.000144064
  11  :   -0.000088133    0.000185814   -0.000033738
  12  :   -0.000054945    0.000088048   -0.000147944
  13  :    0.000013350   -0.000065517   -0.000160773
  14  :    0.000069832   -0.000162737   -0.000035054
  15  :    0.000079923   -0.000151224    0.000120021
  16  :    0.000004963   -0.000000712   -0.000000511
  17  :    0.000001489    0.000004490    0.000034134
  18  :   -0.000006296   -0.000003698   -0.000032754

  |G| =    0.000907749

Starting D4


------------------- 
Dispersion Gradient 
------------------- 
   1  :   -0.000022164    0.000110951    0.000277939
   2  :   -0.000164008    0.000327305   -0.000148908
   3  :   -0.000126351    0.000175081   -0.000458877
   4  :    0.000033987   -0.000169220   -0.000415581
   5  :    0.000177637   -0.000435248   -0.000179860
   6  :    0.000166518   -0.000338636    0.000149547
   7  :   -0.000049108    0.000245639    0.000580556
   8  :   -0.000001009    0.000030830    0.000158483
   9  :   -0.000060831    0.000061706    0.000149314
  10  :    0.000025227    0.000097176    0.000143989
  11  :   -0.000088110    0.000185778   -0.000033784
  12  :   -0.000054948    0.000088024   -0.000147916
  13  :    0.000013302   -0.000065481   -0.000160697
  14  :    0.000069816   -0.000162751   -0.000035084
  15  :    0.000079888   -0.000151234    0.000120010
  16  :    0.000004963   -0.000000712   -0.000000511
  17  :    0.000001489    0.000004490    0.000034134
  18  :   -0.000006296   -0.000003698   -0.000032754

  |G| =    0.000907447

Starting D4


------------------- 
Dispersion Gradient 
------------------- 
   1  :   -0.000022161    0.000110951    0.000277925
   2  :   -0.000165435    0.000327761   -0.000148972
   3  :   -0.000126332    0.000175069   -0.000458867
   4  :    0.000034185   -0.000169407   -0.000415745
   5  :    0.000177991   -0.000435508   -0.000179899
   6  :    0.000166807   -0.000338944    0.000149691
   7  :   -0.000048950    0.000245631    0.000580662
   8  :   -0.000000927    0.000030839    0.000158449
   9  :   -0.000060734    0.000061706    0.000149270
  10  :    0.000025336    0.000097196    0.000144033
  11  :   -0.000088175    0.000185893   -0.000033753
  12  :   -0.000054908    0.000088032   -0.000147893
  13  :    0.000013380   -0.000065461   -0.000160676
  14  :    0.000069824   -0.000162658   -0.000035069
  15  :    0.000079944   -0.000151180    0.000119977
  16  :    0.000004962   -0.000000711   -0.000000511
  17  :    0.000001489    0.000004490    0.000034134
  18  :   -0.000006295   -0.000003698   -0.000032754

  |G| =    0.000908398

Starting D4


------------------- 
Dispersion Gradient 
------------------- 
   1  :   -0.000022164    0.000110949    0.000277917
   2  :   -0.000164949    0.000328658   -0.000148865
   3  :   -0.000126334    0.000175054   -0.000458862
   4  :    0.000034177   -0.000169630   -0.000415880
   5  :    0.000177943   -0.000435796   -0.000179923
   6  :    0.000166816   -0.000339166    0.000149765
   7  :   -0.000049025    0.000245561    0.000580639
   8  :   -0.000000971    0.000030793    0.000158449
   9  :   -0.000060790    0.000061664    0.000149284
  10  :    0.000025278    0.000097142    0.000143990
  11  :   -0.000088198    0.000185974   -0.000033734
  12  :   -0.000054931    0.000088016   -0.000147896
  13  :    0.000013330   -0.000065481   -0.000160652
  14  :    0.000069773   -0.000162622   -0.000035061
  15  :    0.000079889   -0.000151198    0.000119961
  16  :    0.000004962   -0.000000711   -0.000000511
  17  :    0.000001489    0.000004490    0.000034133
  18  :   -0.000006295   -0.000003698   -0.000032754

  |G| =    0.000908795

Starting D4


------------------- 
Dispersion Gradient 
------------------- 
   1  :   -0.000022160    0.000110953    0.000277948
   2  :   -0.000164493    0.000326412   -0.000149015
   3  :   -0.000126349    0.000175095   -0.000458882
   4  :    0.000033994   -0.000168996   -0.000415443
   5  :    0.000177684   -0.000434960   -0.000179836
   6  :    0.000166507   -0.000338412    0.000149471
   7  :   -0.000049033    0.000245709    0.000580578
   8  :   -0.000000965    0.000030876    0.000158484
   9  :   -0.000060776    0.000061748    0.000149299
  10  :    0.000025285    0.000097230    0.000144032
  11  :   -0.000088084    0.000185690   -0.000033804
  12  :   -0.000054925    0.000088040   -0.000147913
  13  :    0.000013352   -0.000065460   -0.000160721
  14  :    0.000069867   -0.000162787   -0.000035092
  15  :    0.000079942   -0.000151216    0.000120025
  16  :    0.000004963   -0.000000712   -0.000000511
  17  :    0.000001488    0.000004490    0.000034134
  18  :   -0.000006296   -0.000003698   -0.000032755

  |G| =    0.000907048

Starting D4


------------------- 
Dispersion Gradient 
------------------- 
   1  :   -0.000022164    0.000110954    0.000277928
   2  :   -0.000164688    0.000327606   -0.000147709
   3  :   -0.000126341    0.000175071   -0.000458889
   4  :    0.000034160   -0.000169513   -0.000415891
   5  :    0.000177833   -0.000435420   -0.000180001
   6  :    0.000166594   -0.000338651    0.000149495
   7  :   -0.000049081    0.000245663    0.000580161
   8  :   -0.000000945    0.000030799    0.000158528
   9  :   -0.000060774    0.000061701    0.000149165
  10  :    0.000025268    0.000097175    0.000143899
  11  :   -0.000088156    0.000185866   -0.000033753
  12  :   -0.000054936    0.000088029   -0.000147995
  13  :    0.000013326   -0.000065426   -0.000160679
  14  :    0.000069812   -0.000162687   -0.000035102
  15  :    0.000079936   -0.000151248    0.000119972
  16  :    0.000004963   -0.000000712   -0.000000511
  17  :    0.000001488    0.000004490    0.000034133
  18  :   -0.000006296   -0.000003698   -0.000032754

  |G| =    0.000907796

Starting D4


------------------- 
Dispersion Gradient 
------------------- 
   1  :   -0.000022161    0.000110949    0.000277936
   2  :   -0.000164752    0.000327456   -0.000150168
   3  :   -0.000126342    0.000175079   -0.000458855
   4  :    0.000034012   -0.000169113   -0.000415435
   5  :    0.000177795   -0.000435336   -0.000179758
   6  :    0.000166731   -0.000338929    0.000149743
   7  :   -0.000048978    0.000245607    0.000581054
   8  :   -0.000000992    0.000030870    0.000158404
   9  :   -0.000060792    0.000061711    0.000149418
  10  :    0.000025295    0.000097197    0.000144123
  11  :   -0.000088130    0.000185806   -0.000033784
  12  :   -0.000054920    0.000088027   -0.000147815
  13  :    0.000013356   -0.000065515   -0.000160694
  14  :    0.000069828   -0.000162722   -0.000035051
  15  :    0.000079895   -0.000151167    0.000120014
  16  :    0.000004962   -0.000000711   -0.000000511
  17  :    0.000001489    0.000004490    0.000034134
  18  :   -0.000006295   -0.000003698   -0.000032755

  |G| =    0.000908046

Starting D4


------------------- 
Dispersion Gradient 
------------------- 
   1  :   -0.000022236    0.000110955    0.000277862
   2  :   -0.000164730    0.000327539   -0.000148940
   3  :   -0.000125758    0.000174898   -0.000458770
   4  :    0.000034075   -0.000169311   -0.000415667
   5  :    0.000177677   -0.000435247   -0.000179936
   6  :    0.000166504   -0.000338729    0.000149528
   7  :   -0.000049141    0.000245636    0.000580630
   8  :   -0.000000976    0.000030835    0.000158474
[...]
      6       0.046389  -0.091219  -0.062272   0.000183   0.000046   0.000060
      7      -0.098750   0.193880   0.199634   0.000025  -0.000219   0.000039
      8       0.016851  -0.033081   0.275773  -0.000013  -0.000497   0.000038
      9      -0.035102   0.157833   0.017988   0.000053  -0.000101   0.000034
     10       0.093381  -0.314866  -0.067439  -0.000079   0.000197  -0.000005
     11       0.070569   0.152867  -0.122759  -0.000056  -0.000089   0.000014
     12      -0.019720  -0.084486   0.003730   0.000009   0.000088   0.000042
     13      -0.005715   0.148611   0.062972  -0.000074  -0.000222   0.000063
     14      -0.220030  -0.172635   0.317407   0.000016  -0.000011  -0.000043
     15       0.042920   0.085262   0.065947   0.000083  -0.000026  -0.000271
     16      -0.081989  -0.190046  -0.210034  -0.000026   0.000128  -0.000049
     17       0.059735  -0.004613  -0.282994  -0.000041   0.000575  -0.000117
     18       0.008317   0.010648   0.003838   0.000226   0.002931  -0.085061
     19      -0.031821  -0.022141  -0.016677   0.000027  -0.043591  -0.030525
     20      -0.063195   0.006099  -0.036624  -0.000022  -0.034286   0.013303
     21      -0.039262  -0.029657  -0.014668   0.000186   0.106368  -0.041293
     22       0.129383   0.135643   0.027662  -0.000038  -0.237380   0.051431
     23       0.102786   0.163900   0.009765  -0.000013   0.247455  -0.060252
     24      -0.016216  -0.037548  -0.004112   0.000265  -0.550503   0.715412
     25      -0.156798  -0.132275  -0.046998   0.000068   0.147777  -0.218101
     26      -0.007967  -0.077610  -0.017392  -0.000048   0.101556  -0.138827
     27       0.112773   0.102835   0.029784   0.000249   0.411013   0.343066
     28      -0.106430  -0.078452  -0.030183  -0.000015   0.601591   0.534138
     29      -0.009610  -0.061467  -0.026099  -0.000056   0.043171   0.044777
     30       0.072896   0.005867   0.098714   0.000293   0.002958  -0.003083
     31      -0.049593  -0.074043  -0.150603   0.000063  -0.007227   0.001750
     32       0.489065  -0.266469   0.294548  -0.000118  -0.002272   0.000858
     33      -0.036185  -0.018670   0.116364   0.000230   0.000092  -0.000139
     34       0.131498  -0.008960  -0.277093  -0.000050  -0.000241  -0.000089
     35       0.227570  -0.225509  -0.091334  -0.000011  -0.000380   0.000181
     36       0.100509  -0.185098   0.007729   0.000042  -0.000121  -0.000364
     37      -0.174650   0.374936  -0.050817  -0.000064   0.000455  -0.000206
     38       0.213296  -0.157081  -0.152045  -0.000016   0.000915  -0.000041
     39       0.089895  -0.034806  -0.085873  -0.000083  -0.000366   0.000127
     40      -0.082954   0.128009   0.136491  -0.000075   0.000794  -0.000103
     41       0.520906   0.220908  -0.247446  -0.000089  -0.000197   0.000022
     42      -0.024929  -0.022300  -0.120042   0.000040  -0.001616   0.000543
     43       0.112993   0.105769   0.292880  -0.000123   0.002585  -0.000838
     44       0.248753   0.249675   0.110342  -0.000039  -0.005007   0.001416
     45       0.000006  -0.000019  -0.000000  -0.096626  -0.000000  -0.000003
     46      -0.000013   0.000024   0.000011  -0.102140  -0.000001  -0.000008
     47      -0.000016  -0.000008   0.000018  -0.832354  -0.000001   0.000001
     48       0.000011  -0.000015  -0.000006   0.124990   0.000000  -0.000003
     49      -0.000013   0.000032   0.000006   0.032851  -0.000001  -0.000001
     50       0.000010   0.000004  -0.000011   0.355643   0.000002   0.000000
     51       0.000004  -0.000017  -0.000002  -0.041165  -0.000000  -0.000001
     52      -0.000015   0.000041   0.000006   0.056701  -0.000002   0.000003
     53       0.000015   0.000003  -0.000010   0.373260   0.000001  -0.000000
                 48         49         50         51         52         53    
      0      -0.000483  -0.000339   0.000890   0.000248   0.000932   0.000154
      1       0.001305   0.000238  -0.001984  -0.000913  -0.001923  -0.000565
      2       0.000724  -0.002317  -0.000139  -0.001657   0.000605  -0.001053
      3       0.000343   0.027372  -0.011859   0.012315  -0.009276   0.006939
      4      -0.000703  -0.062549   0.027303  -0.028355   0.021882  -0.016412
      5      -0.000133  -0.009603   0.005006  -0.005255   0.006277  -0.004894
      6      -0.000137  -0.012501   0.001006   0.007212  -0.017884   0.015575
      7       0.000314   0.021121  -0.002095  -0.010894   0.029069  -0.025967
      8       0.000033  -0.028662   0.000506   0.022314  -0.046180   0.037353
      9       0.000069  -0.001684  -0.002033   0.004687   0.001986  -0.004054
     10      -0.000127   0.008473   0.009056  -0.023194  -0.004885   0.019727
     11       0.000084   0.021235   0.020470  -0.057452  -0.002234   0.048210
     12      -0.000134   0.006602   0.017102  -0.003690  -0.021462  -0.019369
     13       0.000256  -0.015209  -0.039093   0.009356   0.049892   0.044410
     14      -0.000156  -0.002525  -0.005064   0.005181   0.010148   0.006460
     15       0.000982  -0.004340  -0.020147  -0.014005  -0.009431  -0.006590
     16      -0.001670   0.007465   0.033667   0.023219   0.014942   0.010301
     17       0.002741  -0.009683  -0.049013  -0.034982  -0.026616  -0.019217
     18      -0.034874   0.000295  -0.001037  -0.000364  -0.000366  -0.000071
     19       0.069414  -0.000330   0.002061   0.000919   0.000708   0.000201
     20      -0.049457  -0.000190  -0.001556  -0.000918  -0.000517  -0.000379
     21       0.277151   0.000320   0.008499   0.004570   0.002491   0.001755
     22      -0.600556  -0.000496  -0.018106  -0.009592  -0.005355  -0.003586
     23       0.654683   0.002677   0.021626   0.013188   0.005948   0.005326
     24       0.267280  -0.006140   0.007563   0.000102   0.002191  -0.001601
     25      -0.066694   0.001705  -0.001847   0.000053  -0.000394   0.000675
     26      -0.058299   0.002667  -0.001546   0.001349  -0.000375   0.001065
     27      -0.126842   0.002458  -0.003590  -0.000303  -0.001122   0.000614
     28      -0.168244   0.003211  -0.004581  -0.000443  -0.001124   0.001216
     29      -0.020340   0.001537  -0.000498   0.001195  -0.000094   0.000786
     30      -0.002857  -0.317514   0.136901  -0.138394   0.103493  -0.076151
     31       0.006355   0.726487  -0.313440   0.316645  -0.237340   0.174644
     32       0.002296   0.115230  -0.050418   0.050436  -0.040031   0.029723
     33       0.000948   0.146910  -0.008121  -0.093816   0.205541  -0.168930
     34      -0.001631  -0.243098   0.013789   0.154010  -0.339082   0.279396
     35       0.002170   0.360739  -0.018381  -0.235531   0.508716  -0.414851
     36       0.000174   0.021328   0.020851  -0.055522  -0.005347   0.044461
     37      -0.000450  -0.103839  -0.100869   0.270759   0.020783  -0.216421
     38      -0.000561  -0.254052  -0.245425   0.662957   0.040121  -0.529357
     39       0.002326  -0.079700  -0.203242   0.047719   0.244260   0.211881
     40      -0.005290   0.183454   0.467520  -0.110642  -0.562544  -0.487250
     41      -0.001010   0.029354   0.073655  -0.021089  -0.091769  -0.076590
     42      -0.010247   0.048804   0.232664   0.159348   0.109830   0.076350
     43       0.016800  -0.081401  -0.386932  -0.264970  -0.181967  -0.126345
     44      -0.028916   0.120096   0.575927   0.394562   0.274708   0.191765
     45      -0.000000  -0.000000   0.000001   0.000000   0.000000  -0.000001
     46      -0.000000   0.000001  -0.000001  -0.000000   0.000001  -0.000000
     47       0.000004   0.000002   0.000002   0.000003   0.000004  -0.000004
     48      -0.000001  -0.000001   0.000001  -0.000000  -0.000000   0.000000
     49       0.000001   0.000001  -0.000002  -0.000000   0.000001   0.000000
     50      -0.000000  -0.000000  -0.000000  -0.000000   0.000000   0.000001
     51      -0.000000  -0.000000   0.000001   0.000000  -0.000000  -0.000000
     52       0.000001   0.000001  -0.000003   0.000000   0.000001   0.000000
     53      -0.000000  -0.000001  -0.000000  -0.000000   0.000000   0.000001


-----------
IR SPECTRUM
-----------

 Mode   freq       eps      Int      T**2         TX        TY        TZ
       cm**-1   L/(mol*cm) km/mol    a.u.
----------------------------------------------------------------------------
 10:    157.14   0.000524    2.65  0.001041  ( 0.029418  0.012835 -0.003340)
 11:    174.23   0.000004    0.02  0.000007  (-0.000112  0.002605 -0.000219)
 12:    196.27   0.000011    0.05  0.000017  (-0.003040  0.000069 -0.002771)
 13:    318.60   0.000076    0.38  0.000074  (-0.003387  0.007906 -0.000197)
 14:    387.40   0.000002    0.01  0.000001  ( 0.000255  0.001128  0.000198)
 15:    460.45   0.002106   10.64  0.001428  ( 0.034000  0.016138 -0.003334)
 16:    534.52   0.000090    0.46  0.000053  (-0.000662 -0.002656 -0.006716)
 17:    627.58   0.000029    0.15  0.000014  (-0.001631  0.002995 -0.001659)
 18:    663.85   0.008981   45.39  0.004222  (-0.058632 -0.027311  0.006192)
 19:    706.24   0.001821    9.20  0.000804  (-0.003487 -0.027865  0.003977)
 20:    727.80   0.000217    1.10  0.000093  (-0.008839 -0.003618  0.001318)
 21:    738.49   0.001440    7.28  0.000609  (-0.024300  0.003493  0.002445)
 22:    805.54   0.000001    0.01  0.000001  ( 0.000370  0.000492 -0.000371)
 23:    809.04   0.000126    0.64  0.000049  (-0.000416  0.003634  0.005941)
 24:    872.34   0.000020    0.10  0.000007  ( 0.002300  0.000952 -0.001054)
 25:    959.19   0.000000    0.00  0.000000  (-0.000030 -0.000366  0.000026)
 26:    966.22   0.000524    2.65  0.000169  (-0.001303  0.006120  0.011410)
 27:    982.56   0.000007    0.04  0.000002  ( 0.001127  0.000926  0.000492)
 28:   1010.27   0.000126    0.64  0.000039  ( 0.000827 -0.001603 -0.005974)
 29:   1031.97   0.000937    4.74  0.000283  ( 0.014104  0.008555  0.003349)
 30:   1034.24   0.000528    2.67  0.000159  ( 0.002897 -0.004026 -0.011609)
 31:   1102.68   0.001306    6.60  0.000370  (-0.007984  0.016875 -0.004604)
 32:   1142.52   0.000036    0.18  0.000010  (-0.001308  0.002568 -0.001197)
 33:   1171.02   0.000040    0.20  0.000011  (-0.000309  0.001456  0.002899)
 34:   1264.32   0.000104    0.52  0.000026  (-0.000823  0.003630  0.003432)
 35:   1312.76   0.000101    0.51  0.000024  ( 0.000395  0.000424  0.004862)
 36:   1358.68   0.000183    0.93  0.000042  ( 0.002256 -0.003572  0.004920)
 37:   1372.38   0.000103    0.52  0.000023  ( 0.004765 -0.000688 -0.000525)
 38:   1385.33   0.000138    0.70  0.000031  (-0.001120  0.005397  0.000849)
 39:   1439.56   0.001303    6.58  0.000282  (-0.015766 -0.005664  0.001320)
 40:   1450.66   0.001171    5.92  0.000252  (-0.005387  0.014269 -0.004387)
 41:   1513.55   0.001393    7.04  0.000287  ( 0.005457 -0.014274 -0.007322)
 42:   1517.53   0.003014   15.23  0.000620  ( 0.001199  0.003084  0.024676)
 43:   1616.69   0.000100    0.51  0.000019  (-0.001839  0.003995 -0.000151)
 44:   1705.03   0.001582    8.00  0.000290  (-0.001333  0.006805  0.015542)
 45:   2106.52   0.056137  283.69  0.008316  (-0.010440 -0.010988 -0.089925)
 46:   3106.33   0.004688   23.69  0.000471  ( 0.000953 -0.011770 -0.018207)
 47:   3167.51   0.002635   13.31  0.000260  (-0.014873 -0.004917  0.003767)
 48:   3244.81   0.002434   12.30  0.000234  (-0.005157  0.009503 -0.010825)
 49:   3281.59   0.001244    6.29  0.000118  ( 0.002665 -0.007424 -0.007489)
 50:   3286.03   0.000718    3.63  0.000068  (-0.002684  0.004485 -0.006394)
 51:   3295.15   0.002232   11.28  0.000211  ( 0.001332 -0.005781 -0.013274)
 52:   3305.65   0.005920   29.92  0.000559  (-0.009624  0.018712 -0.010776)
 53:   3313.84   0.002132   10.77  0.000201  (-0.001202  0.005641  0.012941)

* The epsilon (eps) is given for a Dirac delta lineshape.
** The dipole moment derivative (T) already includes vibrational overlap.

The first frequency considered to be a vibration is 10
The total number of vibrations considered is 44


--------------------------
THERMOCHEMISTRY AT 298.15K
--------------------------

Temperature         ... 298.15 K
Pressure            ... 1.00 atm
Total Mass          ... 138.15 AMU

Throughout the following assumptions are being made:
  (1) The electronic state is orbitally nondegenerate
  (2) There are no thermally accessible electronically excited states
  (3) Hindered rotations indicated by low frequency modes are not
      treated as such but are treated as vibrations and this may
      cause some error
  (4) All equations used are the standard statistical mechanics
      equations for an ideal gas
  (5) All vibrations are strictly harmonic

freq.     157.14  E(vib)   ...       0.40 
freq.     174.23  E(vib)   ...       0.38 
freq.     196.27  E(vib)   ...       0.36 
freq.     318.60  E(vib)   ...       0.25 
freq.     387.40  E(vib)   ...       0.20 
freq.     460.45  E(vib)   ...       0.16 
freq.     534.52  E(vib)   ...       0.13 
freq.     627.58  E(vib)   ...       0.09 
freq.     663.85  E(vib)   ...       0.08 
freq.     706.24  E(vib)   ...       0.07 
freq.     727.80  E(vib)   ...       0.06 
freq.     738.49  E(vib)   ...       0.06 
freq.     805.54  E(vib)   ...       0.05 
freq.     809.04  E(vib)   ...       0.05 
freq.     872.34  E(vib)   ...       0.04 
freq.     959.19  E(vib)   ...       0.03 
freq.     966.22  E(vib)   ...       0.03 
freq.     982.56  E(vib)   ...       0.02 
freq.    1010.27  E(vib)   ...       0.02 
freq.    1031.97  E(vib)   ...       0.02 
freq.    1034.24  E(vib)   ...       0.02 
freq.    1102.68  E(vib)   ...       0.02 
freq.    1142.52  E(vib)   ...       0.01 
freq.    1171.02  E(vib)   ...       0.01 
freq.    1264.32  E(vib)   ...       0.01 
freq.    1312.76  E(vib)   ...       0.01 
freq.    1358.68  E(vib)   ...       0.01 
freq.    1372.38  E(vib)   ...       0.01 
freq.    1385.33  E(vib)   ...       0.00 
freq.    1439.56  E(vib)   ...       0.00 
freq.    1450.66  E(vib)   ...       0.00 
freq.    1513.55  E(vib)   ...       0.00 
freq.    1517.53  E(vib)   ...       0.00 
freq.    1616.69  E(vib)   ...       0.00 
freq.    1705.03  E(vib)   ...       0.00 
freq.    2106.52  E(vib)   ...       0.00 
freq.    3106.33  E(vib)   ...       0.00 
freq.    3167.51  E(vib)   ...       0.00 
freq.    3244.81  E(vib)   ...       0.00 
freq.    3281.59  E(vib)   ...       0.00 
freq.    3286.03  E(vib)   ...       0.00 
freq.    3295.15  E(vib)   ...       0.00 
freq.    3305.65  E(vib)   ...       0.00 
freq.    3313.84  E(vib)   ...       0.00 

------------
INNER ENERGY
------------

The inner energy is: U= E(el) + E(ZPE) + E(vib) + E(rot) + E(trans)
    E(el)   - is the total energy from the electronic structure calculation
              = E(kin-el) + E(nuc-el) + E(el-el) + E(nuc-nuc)
    E(ZPE)  - the the zero temperature vibrational energy from the frequency calculation
    E(vib)  - the the finite temperature correction to E(ZPE) due to population
              of excited vibrational states
    E(rot)  - is the rotational thermal energy
    E(trans)- is the translational thermal energy

Summary of contributions to the inner energy U:
Electronic energy                ...   -475.66341922 Eh
Zero point energy                ...      0.14038993 Eh      88.10 kcal/mol
Thermal vibrational correction   ...      0.00413538 Eh       2.59 kcal/mol
Thermal rotational correction    ...      0.00141627 Eh       0.89 kcal/mol
Thermal translational correction ...      0.00141627 Eh       0.89 kcal/mol
-----------------------------------------------------------------------
Total thermal energy                   -475.51606137 Eh


Summary of corrections to the electronic energy:
(perhaps to be used in another calculation)
Total thermal correction                  0.00696792 Eh       4.37 kcal/mol
Non-thermal (ZPE) correction              0.14038993 Eh      88.10 kcal/mol
-----------------------------------------------------------------------
Total correction                          0.14735785 Eh      92.47 kcal/mol


--------
ENTHALPY
--------

The enthalpy is H = U + kB*T
                kB is Boltzmann's constant
Total free energy                 ...   -475.51606137 Eh 
Thermal Enthalpy correction       ...      0.00094421 Eh       0.59 kcal/mol
-----------------------------------------------------------------------
Total Enthalpy                    ...   -475.51511716 Eh


Note: Only C1 symmetry has been detected, increase convergence thresholds 
      if your molecule has a higher symmetry. Symmetry factor of 1.0 is   
      used for the rotational entropy correction. 
 

Note: Rotational entropy computed according to Herzberg 
Infrared and Raman Spectra, Chapter V,1, Van Nostrand Reinhold, 1945 
Point Group:  C1, Symmetry Number:   1  
Rotational constants in cm-1:     0.153233     0.000711     0.000708 

Vibrational entropy computed according to the QRRHO of S. Grimme
Chem.Eur.J. 2012 18 9955


-------
ENTROPY
-------

The entropy contributions are T*S = T*(S(el)+S(vib)+S(rot)+S(trans))
     S(el)   - electronic entropy
     S(vib)  - vibrational entropy
     S(rot)  - rotational entropy
     S(trans)- translational entropy
The entropies will be listed as multiplied by the temperature to get
units of energy

Electronic entropy                ...      0.00000000 Eh      0.00 kcal/mol
Vibrational entropy               ...      0.00658343 Eh      4.13 kcal/mol
Rotational entropy                ...      0.01724277 Eh     10.82 kcal/mol
Translational entropy             ...      0.01932890 Eh     12.13 kcal/mol
-----------------------------------------------------------------------
Final entropy term                ...      0.04315510 Eh     27.08 kcal/mol

In case the symmetry of your molecule has not been determined correctly
or in case you have a reason to use a different symmetry number we print 
out the resulting rotational entropy values for sn=1,12 :
 --------------------------------------------------------
|  sn= 1 | S(rot)=       0.01724277 Eh     10.82 kcal/mol|
|  sn= 2 | S(rot)=       0.01658832 Eh     10.41 kcal/mol|
|  sn= 3 | S(rot)=       0.01620548 Eh     10.17 kcal/mol|
|  sn= 4 | S(rot)=       0.01593386 Eh     10.00 kcal/mol|
|  sn= 5 | S(rot)=       0.01572317 Eh      9.87 kcal/mol|
|  sn= 6 | S(rot)=       0.01555103 Eh      9.76 kcal/mol|
|  sn= 7 | S(rot)=       0.01540548 Eh      9.67 kcal/mol|
|  sn= 8 | S(rot)=       0.01527940 Eh      9.59 kcal/mol|
|  sn= 9 | S(rot)=       0.01516820 Eh      9.52 kcal/mol|
|  sn=10 | S(rot)=       0.01506872 Eh      9.46 kcal/mol|
|  sn=11 | S(rot)=       0.01497873 Eh      9.40 kcal/mol|
|  sn=12 | S(rot)=       0.01489657 Eh      9.35 kcal/mol|
 --------------------------------------------------------


-------------------
GIBBS FREE ENERGY
-------------------

The Gibbs free energy is G = H - T*S

Total enthalpy                    ...   -475.51511716 Eh 
Total entropy correction          ...     -0.04315510 Eh    -27.08 kcal/mol
-----------------------------------------------------------------------
Final Gibbs free energy         ...   -475.55827226 Eh

For completeness - the Gibbs free energy minus the electronic energy
G-E(el)                           ...      0.10514696 Eh     65.98 kcal/mol


Timings for individual modules:

Sum of individual times         ...      599.603 sec (=   9.993 min)
GTO integral calculation        ...        1.438 sec (=   0.024 min)   0.2 %
SCF iterations                  ...       81.864 sec (=   1.364 min)  13.7 %
Analytical frequency calculation...      516.301 sec (=   8.605 min)  86.1 %
                             ****ORCA TERMINATED NORMALLY****
TOTAL RUN TIME: 0 days 0 hours 10 minutes 0 seconds 512 msec
