
                                 *****************
                                 * O   R   C   A *
                                 *****************

                                            #,                                       
                                            ###                                      
                                            ####                                     
                                            #####                                    
                                            ######                                   
                                           ########,                                 
                                     ,,################,,,,,                         
                               ,,#################################,,                 
                          ,,##########################################,,             
                       ,#########################################, ''#####,          
                    ,#############################################,,   '####,        
                  ,##################################################,,,,####,       
                ,###########''''           ''''###############################       
              ,#####''   ,,,,##########,,,,          '''####'''          '####       
            ,##' ,,,,###########################,,,                        '##       
           ' ,,###''''                  '''############,,,                           
         ,,##''                                '''############,,,,        ,,,,,,###''
      ,#''                                            '''#######################'''  
     '                                                          ''''####''''         
             ,#######,   #######,   ,#######,      ##                                
            ,#'     '#,  ##    ##  ,#'     '#,    #''#        ######   ,####,        
            ##       ##  ##   ,#'  ##            #'  '#       #        #'  '#        
            ##       ##  #######   ##           ,######,      #####,   #    #        
            '#,     ,#'  ##    ##  '#,     ,#' ,#      #,         ##   #,  ,#        
             '#######'   ##     ##  '#######'  #'      '#     #####' # '####'        



                  #######################################################
                  #                        -***-                        #
                  #          Department of theory and spectroscopy      #
                  #    Directorship and core code : Frank Neese         #
                  #        Max Planck Institute fuer Kohlenforschung    #
                  #                Kaiser Wilhelm Platz 1               #
                  #                 D-45470 Muelheim/Ruhr               #
                  #                      Germany                        #
                  #                                                     #
                  #                  All rights reserved                #
                  #                        -***-                        #
                  #######################################################



                         Program Version 5.0.4 -  RELEASE  -

 With contributions from (in alphabetic order):
   Daniel Aravena         : Magnetic Suceptibility
   Michael Atanasov       : Ab Initio Ligand Field Theory (pilot matlab implementation)
   Alexander A. Auer      : GIAO ZORA, VPT2 properties, NMR spectrum
   Ute Becker             : Parallelization
   Giovanni Bistoni       : ED, misc. LED, open-shell LED, HFLD
   Martin Brehm           : Molecular dynamics
   Dmytro Bykov           : SCF Hessian
   Vijay G. Chilkuri      : MRCI spin determinant printing, contributions to CSF-ICE
   Dipayan Datta          : RHF DLPNO-CCSD density
   Achintya Kumar Dutta   : EOM-CC, STEOM-CC
   Dmitry Ganyushin       : Spin-Orbit,Spin-Spin,Magnetic field MRCI
   Miquel Garcia          : C-PCM and meta-GGA Hessian, CC/C-PCM, Gaussian charge scheme
   Yang Guo               : DLPNO-NEVPT2, F12-NEVPT2, CIM, IAO-localization
   Andreas Hansen         : Spin unrestricted coupled pair/coupled cluster methods
   Benjamin Helmich-Paris : MC-RPA, TRAH-SCF, COSX integrals
   Lee Huntington         : MR-EOM, pCC
   Robert Izsak           : Overlap fitted RIJCOSX, COSX-SCS-MP3, EOM
   Marcus Kettner         : VPT2
   Christian Kollmar      : KDIIS, OOCD, Brueckner-CCSD(T), CCSD density, CASPT2, CASPT2-K
   Simone Kossmann        : Meta GGA functionals, TD-DFT gradient, OOMP2, MP2 Hessian
   Martin Krupicka        : Initial AUTO-CI
   Lucas Lang             : DCDCAS
   Marvin Lechner         : AUTO-CI (C++ implementation), FIC-MRCC
   Dagmar Lenk            : GEPOL surface, SMD
   Dimitrios Liakos       : Extrapolation schemes; Compound Job, initial MDCI parallelization
   Dimitrios Manganas     : Further ROCIS development; embedding schemes
   Dimitrios Pantazis     : SARC Basis sets
   Anastasios Papadopoulos: AUTO-CI, single reference methods and gradients
   Taras Petrenko         : DFT Hessian,TD-DFT gradient, ASA, ECA, R-Raman, ABS, FL, XAS/XES, NRVS
   Peter Pinski           : DLPNO-MP2, DLPNO-MP2 Gradient
   Christoph Reimann      : Effective Core Potentials
   Marius Retegan         : Local ZFS, SOC
   Christoph Riplinger    : Optimizer, TS searches, QM/MM, DLPNO-CCSD(T), (RO)-DLPNO pert. Triples
   Tobias Risthaus        : Range-separated hybrids, TD-DFT gradient, RPA, STAB
   Michael Roemelt        : Original ROCIS implementation
   Masaaki Saitow         : Open-shell DLPNO-CCSD energy and density
   Barbara Sandhoefer     : DKH picture change effects
   Avijit Sen             : IP-ROCIS
   Kantharuban Sivalingam : CASSCF convergence, NEVPT2, FIC-MRCI
   Bernardo de Souza      : ESD, SOC TD-DFT
   Georgi Stoychev        : AutoAux, RI-MP2 NMR, DLPNO-MP2 response
   Willem Van den Heuvel  : Paramagnetic NMR
   Boris Wezisla          : Elementary symmetry handling
   Frank Wennmohs         : Technical directorship


 We gratefully acknowledge several colleagues who have allowed us to
 interface, adapt or use parts of their codes:
   Stefan Grimme, W. Hujo, H. Kruse, P. Pracht,  : VdW corrections, initial TS optimization,
                  C. Bannwarth, S. Ehlert          DFT functionals, gCP, sTDA/sTD-DF
   Ed Valeev, F. Pavosevic, A. Kumar             : LibInt (2-el integral package), F12 methods
   Garnet Chan, S. Sharma, J. Yang, R. Olivares  : DMRG
   Ulf Ekstrom                                   : XCFun DFT Library
   Mihaly Kallay                                 : mrcc  (arbitrary order and MRCC methods)
   Jiri Pittner, Ondrej Demel                    : Mk-CCSD
   Frank Weinhold                                : gennbo (NPA and NBO analysis)
   Christopher J. Cramer and Donald G. Truhlar   : smd solvation model
   Lars Goerigk                                  : TD-DFT with DH, B97 family of functionals
   V. Asgeirsson, H. Jonsson                     : NEB implementation
   FAccTs GmbH                                   : IRC, NEB, NEB-TS, DLPNO-Multilevel, CI-OPT
                                                   MM, QMMM, 2- and 3-layer-ONIOM, Crystal-QMMM,
                                                   LR-CPCM, SF, NACMEs, symmetry and pop. for TD-DFT,
                                                   nearIR, NL-DFT gradient (VV10), updates on ESD,
                                                   ML-optimized integration grids
   S Lehtola, MJT Oliveira, MAL Marques          : LibXC Library
   Liviu Ungur et al                             : ANISO software


 Your calculation uses the libint2 library for the computation of 2-el integrals
 For citations please refer to: http://libint.valeyev.net

 Your ORCA version has been built with support for libXC version: 5.1.0
 For citations please refer to: https://tddft.org/programs/libxc/

 This ORCA versions uses:
   CBLAS   interface :  Fast vector & matrix operations
   LAPACKE interface :  Fast linear algebra routines
   Shared memory     :  Shared parallel matrices


Your calculation utilizes the atom-pairwise dispersion correction
based on tight binding partial charges (D4)
Cite in your paper:
E.Caldeweyher, C.Bannwarth, S.Grimme, J.Chem.Phys., (2017), 147, 034112.
E.Caldeweyher, S.Ehlert, A.Hansen, H.Neugebauer, S.Grimme, J.Chem.Phys., (2018), in progress.
   

================================================================================

----- Orbital basis set information -----
Your calculation utilizes the basis: def2-SVP
   F. Weigend and R. Ahlrichs, Phys. Chem. Chem. Phys. 7, 3297 (2005).

----- AuxJ basis set information -----
Your calculation utilizes the auxiliary basis: def2/J
   F. Weigend, Phys. Chem. Chem. Phys. 8, 1057 (2006).

================================================================================
                                        WARNINGS
                       Please study these warnings very carefully!
================================================================================


WARNING: Geometry Optimization
  ===> : Switching off AutoStart
         For restart on a previous wavefunction, please use MOREAD

INFO   : the flag for use of the SHARK integral package has been found!

================================================================================
                                       INPUT FILE
================================================================================
NAME = para_ts_optfreq.inp
|  1> !B3LYP DEF2-SVP OPT FREQ D4
|  2> 
|  3> * xyz 1 1
|  4>    C       -6.28262        0.37383       -0.14715
|  5>    C       -7.24689        0.99592       -1.09451
|  6>    C       -7.38007        0.51244       -2.38984
|  7>    C       -6.52612       -0.64616       -2.88819
|  8>    C       -5.62245       -1.17020       -1.77887
|  9>    C       -5.54922       -0.66200       -0.55133
| 10>    C       -6.21540        0.96964        1.24229
| 11>    H       -5.48975        0.44342        1.86684
| 12>    H       -7.18942        0.91027        1.73324
| 13>    H       -5.92053        2.02043        1.19489
| 14>    H       -7.85822        1.83566       -0.77192
| 15>    H       -8.09254        0.97405       -3.06989
| 16>    H       -5.00485       -2.02869       -2.03170
| 17>    H       -4.85759       -1.12010        0.15231
| 18>    N       -5.75834       -0.26192       -4.10113
| 19>    O       -4.80241       -1.09395       -4.41283
| 20>    O       -6.50324        0.32984       -4.99248
| 21>    H       -7.19724       -1.45577       -3.18461
| 22> *
| 23> 
| 24>                          ****END OF INPUT****
================================================================================

                       *****************************
                       * Geometry Optimization Run *
                       *****************************

Geometry optimization settings:
Update method            Update   .... BFGS
Choice of coordinates    CoordSys .... Z-matrix Internals
Initial Hessian          InHess   .... Almoef's Model

Convergence Tolerances:
Energy Change            TolE     ....  5.0000e-06 Eh
Max. Gradient            TolMAXG  ....  3.0000e-04 Eh/bohr
RMS Gradient             TolRMSG  ....  1.0000e-04 Eh/bohr
Max. Displacement        TolMAXD  ....  4.0000e-03 bohr
RMS Displacement         TolRMSD  ....  2.0000e-03 bohr
Strict Convergence                ....  False
------------------------------------------------------------------------------
                        ORCA OPTIMIZATION COORDINATE SETUP
------------------------------------------------------------------------------

The optimization will be done in new redundant internal coordinates
Making redundant internal coordinates   ...  (new redundants) done
Evaluating the initial hessian          ...  (Almloef) done
Evaluating the coordinates              ...  done
Calculating the B-matrix                .... done
Calculating the G-matrix                .... done
Diagonalizing the G-matrix              .... done
The first mode is                       ....   40
The number of degrees of freedom        ....   48

    -----------------------------------------------------------------
                    Redundant Internal Coordinates


    -----------------------------------------------------------------
         Definition                    Initial Value    Approx d2E/dq
    -----------------------------------------------------------------
      1. B(C   1,C   0)                  1.4881         0.435813   
      2. B(C   2,C   1)                  1.3890         0.627056   
      3. B(C   3,C   2)                  1.5231         0.383117   
      4. B(C   4,C   3)                  1.5238         0.382245   
      5. B(C   5,C   4)                  1.3306         0.777168   
      6. B(C   5,C   0)                  1.3320         0.773214   
      7. B(C   6,C   0)                  1.5133         0.397223   
      8. B(H   7,C   6)                  1.0925         0.356819   
      9. B(H   8,C   6)                  1.0924         0.356979   
     10. B(H   9,C   6)                  1.0924         0.356929   
     11. B(H  10,C   1)                  1.0876         0.363241   
     12. B(H  11,C   2)                  1.0877         0.363110   
     13. B(H  12,C   4)                  1.0874         0.363606   
     14. B(H  13,C   5)                  1.0878         0.363017   
     15. B(N  14,C   3)                  1.4861         0.393216   
     16. B(O  15,N  14)                  1.3051         0.684695   
     17. B(O  16,N  14)                  1.3037         0.688245   
     18. B(H  17,C   3)                  1.0926         0.356701   
     19. A(C   5,C   0,C   6)          124.0785         0.416979   
     20. A(C   1,C   0,C   6)          116.6621         0.377063   
     21. A(C   1,C   0,C   5)          119.2564         0.423934   
     22. A(C   0,C   1,H  10)          119.8792         0.333150   
     23. A(C   2,C   1,H  10)          119.4353         0.354106   
     24. A(C   0,C   1,C   2)          120.6852         0.408422   
     25. A(C   3,C   2,H  11)          119.0442         0.326112   
     26. A(C   1,C   2,C   3)          121.0731         0.399239   
     27. A(C   1,C   2,H  11)          119.8755         0.354085   
     28. A(C   2,C   3,H  17)          107.9414         0.325159   
     29. A(C   4,C   3,H  17)          107.8758         0.325037   
     30. A(C   4,C   3,N  14)          112.1317         0.365701   
     31. A(C   2,C   3,C   4)          110.8489         0.366359   
     32. A(N  14,C   3,H  17)          106.7092         0.324599   
     33. A(C   2,C   3,N  14)          111.1026         0.365844   
     34. A(C   3,C   4,C   5)          124.9540         0.414513   
     35. A(C   5,C   4,H  12)          118.9989         0.367365   
     36. A(C   3,C   4,H  12)          116.0460         0.326063   
     37. A(C   0,C   5,C   4)          123.1376         0.470785   
     38. A(C   4,C   5,H  13)          118.0925         0.367263   
     39. A(C   0,C   5,H  13)          118.7696         0.366942   
     40. A(H   8,C   6,H   9)          108.2077         0.290039   
     41. A(H   7,C   6,H   9)          107.9890         0.290019   
     42. A(C   0,C   6,H   9)          110.5405         0.327134   
     43. A(H   7,C   6,H   8)          108.0076         0.290025   
     44. A(C   0,C   6,H   8)          110.5881         0.327141   
     45. A(C   0,C   6,H   7)          111.3922         0.327117   
     46. A(O  15,N  14,O  16)          122.9982         0.438483   
     47. A(C   3,N  14,O  16)          112.3474         0.399863   
     48. A(C   3,N  14,O  15)          114.1128         0.399499   
     49. D(H  10,C   1,C   0,C   5)    179.3705         0.012966   
     50. D(C   2,C   1,C   0,C   5)     -0.3965         0.012966   
     51. D(C   2,C   1,C   0,C   6)   -179.7878         0.012966   
     52. D(H  10,C   1,C   0,C   6)     -0.0209         0.012966   
     53. D(C   3,C   2,C   1,C   0)     -1.2827         0.027246   
     54. D(H  11,C   2,C   1,C   0)    179.7016         0.027246   
     55. D(C   3,C   2,C   1,H  10)    178.9493         0.027246   
     56. D(H  11,C   2,C   1,H  10)     -0.0664         0.027246   
     57. D(H  17,C   3,C   2,H  11)    -60.6997         0.010942   
     58. D(N  14,C   3,C   2,H  11)     55.9729         0.010942   
     59. D(N  14,C   3,C   2,C   1)   -123.0509         0.010942   
     60. D(C   4,C   3,C   2,C   1)      2.3355         0.010942   
     61. D(C   4,C   3,C   2,H  11)   -178.6408         0.010942   
     62. D(H  17,C   3,C   2,C   1)    120.2766         0.010942   
     63. D(C   5,C   4,C   3,C   2)     -2.1232         0.010895   
     64. D(H  12,C   4,C   3,H  17)     59.4971         0.010895   
     65. D(H  12,C   4,C   3,N  14)    -57.7159         0.010895   
     66. D(H  12,C   4,C   3,C   2)    177.4781         0.010895   
     67. D(C   5,C   4,C   3,H  17)   -120.1042         0.010895   
     68. D(C   5,C   4,C   3,N  14)    122.6828         0.010895   
     69. D(H  13,C   5,C   4,H  12)      0.9027         0.043380   
     70. D(C   0,C   5,C   4,H  12)   -178.9265         0.043380   
     71. D(C   0,C   5,C   4,C   3)      0.6640         0.043380   
     72. D(H  13,C   5,C   0,C   6)      0.2470         0.042895   
     73. D(H  13,C   5,C   0,C   1)   -179.0963         0.042895   
     74. D(H  13,C   5,C   4,C   3)   -179.5069         0.043380   
     75. D(C   4,C   5,C   0,C   6)   -179.9250         0.042895   
     76. D(C   4,C   5,C   0,C   1)      0.7317         0.042895   
     77. D(H   8,C   6,C   0,C   1)     59.3297         0.011717   
     78. D(H   7,C   6,C   0,C   5)      0.0914         0.011717   
     79. D(H   7,C   6,C   0,C   1)    179.4503         0.011717   
     80. D(H   9,C   6,C   0,C   5)    120.1566         0.011717   
     81. D(H   9,C   6,C   0,C   1)    -60.4845         0.011717   
     82. D(H   8,C   6,C   0,C   5)   -120.0292         0.011717   
     83. D(O  16,N  14,C   3,H  17)     69.5549         0.013212   
     84. D(O  16,N  14,C   3,C   4)   -172.5362         0.013212   
     85. D(O  16,N  14,C   3,C   2)    -47.8705         0.013212   
     86. D(O  15,N  14,C   3,H  17)    -76.4547         0.013212   
     87. D(O  15,N  14,C   3,C   4)     41.4542         0.013212   
     88. D(O  15,N  14,C   3,C   2)    166.1199         0.013212   
    -----------------------------------------------------------------

Number of atoms                         .... 18
Number of degrees of freedom            .... 88

         *************************************************************
         *                GEOMETRY OPTIMIZATION CYCLE   1            *
         *************************************************************
---------------------------------
CARTESIAN COORDINATES (ANGSTROEM)
---------------------------------
  C     -6.282620    0.373830   -0.147150
  C     -7.246890    0.995920   -1.094510
  C     -7.380070    0.512440   -2.389840
  C     -6.526120   -0.646160   -2.888190
  C     -5.622450   -1.170200   -1.778870
  C     -5.549220   -0.662000   -0.551330
  C     -6.215400    0.969640    1.242290
  H     -5.489750    0.443420    1.866840
  H     -7.189420    0.910270    1.733240
  H     -5.920530    2.020430    1.194890
  H     -7.858220    1.835660   -0.771920
  H     -8.092540    0.974050   -3.069890
  H     -5.004850   -2.028690   -2.031700
  H     -4.857590   -1.120100    0.152310
  N     -5.758340   -0.261920   -4.101130
  O     -4.802410   -1.093950   -4.412830
  O     -6.503240    0.329840   -4.992480
  H     -7.197240   -1.455770   -3.184610

----------------------------
CARTESIAN COORDINATES (A.U.)
----------------------------
  NO LB      ZA    FRAG     MASS         X           Y           Z
   0 C     6.0000    0    12.011  -11.872431    0.706436   -0.278073
   1 C     6.0000    0    12.011  -13.694637    1.882016   -2.068324
   2 C     6.0000    0    12.011  -13.946311    0.968371   -4.516143
   3 C     6.0000    0    12.011  -12.332580   -1.221065   -5.457888
   4 C     6.0000    0    12.011  -10.624891   -2.211358   -3.361577
   5 C     6.0000    0    12.011  -10.486506   -1.250999   -1.041863
   6 C     6.0000    0    12.011  -11.745404    1.832354    2.347588
   7 H     1.0000    0     1.008  -10.374124    0.837942    3.527816
   8 H     1.0000    0     1.008  -13.586035    1.720161    3.275349
   9 H     1.0000    0     1.008  -11.188180    3.818059    2.258015
  10 H     1.0000    0     1.008  -14.849884    3.468895   -1.458717
  11 H     1.0000    0     1.008  -15.292684    1.840688   -5.801251
  12 H     1.0000    0     1.008   -9.457796   -3.833669   -3.839357
  13 H     1.0000    0     1.008   -9.179515   -2.116682    0.287824
  14 N     7.0000    0    14.007  -10.881686   -0.494957   -7.750013
  15 O     8.0000    0    15.999   -9.075240   -2.067266   -8.339040
  16 O     8.0000    0    15.999  -12.289343    0.623307   -9.434420
  17 H     1.0000    0     1.008  -13.600813   -2.751007   -6.018041

--------------------------------
INTERNAL COORDINATES (ANGSTROEM)
--------------------------------
 C      0   0   0     0.000000000000     0.00000000     0.00000000
 C      1   0   0     1.488053618187     0.00000000     0.00000000
 C      2   1   0     1.389017505901   120.68515448     0.00000000
 C      3   2   1     1.523134033826   121.07311249   358.71725519
 C      4   3   2     1.523754656400   110.84887780     2.33546973
 C      5   4   3     1.330595477409   124.95400845   357.87679710
 C      1   2   3     1.513291643438   116.66205836   180.21216663
 H      7   1   2     1.092491699465   111.39218868   179.45029405
 H      7   1   2     1.092369745004   110.58809311    59.32973521
 H      7   1   2     1.092407754000   110.54048698   299.51552685
 H      2   1   3     1.087635943043   119.87915112   179.76696582
 H      3   2   1     1.087734018729   119.87553958   179.70157523
 H      5   4   3     1.087362795483   116.04596704   177.47811393
 H      6   5   4     1.087803712303   118.09249363   180.49311525
 N      4   3   2     1.486051799097   111.10263066   236.94913815
 O     15   4   3     1.305079681782   114.11280035   166.11991937
 O     15   4   3     1.303672017840   112.34741366   312.12949926
 H      4   3   2     1.092581906724   107.94143252   120.27657452

---------------------------
INTERNAL COORDINATES (A.U.)
---------------------------
 C      0   0   0     0.000000000000     0.00000000     0.00000000
 C      1   0   0     2.812013810964     0.00000000     0.00000000
 C      2   1   0     2.624862681376   120.68515448     0.00000000
 C      3   2   1     2.878306189186   121.07311249   358.71725519
 C      4   3   2     2.879478995883   110.84887780     2.33546973
 C      5   4   3     2.514461047336   124.95400845   357.87679710
 C      1   2   3     2.859706766850   116.66205836   180.21216663
 H      7   1   2     2.064510115571   111.39218868   179.45029405
 H      7   1   2     2.064279655039   110.58809311    59.32973521
 H      7   1   2     2.064351481633   110.54048698   299.51552685
 H      2   1   3     2.055334065761   119.87915112   179.76696582
 H      3   2   1     2.055519401947   119.87553958   179.70157523
 H      5   4   3     2.054817891677   116.04596704   177.47811393
 H      6   5   4     2.055651103715   118.09249363   180.49311525
 N      4   3   2     2.808230921115   111.10263066   236.94913815
 O     15   4   3     2.466243181513   114.11280035   166.11991937
 O     15   4   3     2.463583082175   112.34741366   312.12949926
 H      4   3   2     2.064680582585   107.94143252   120.27657452

---------------------
BASIS SET INFORMATION
---------------------
There are 4 groups of distinct atoms

 Group   1 Type C   : 7s4p1d contracted to 3s2p1d pattern {511/31/1}
 Group   2 Type H   : 4s1p contracted to 2s1p pattern {31/1}
 Group   3 Type N   : 7s4p1d contracted to 3s2p1d pattern {511/31/1}
 Group   4 Type O   : 7s4p1d contracted to 3s2p1d pattern {511/31/1}

Atom   0C    basis set group =>   1
Atom   1C    basis set group =>   1
Atom   2C    basis set group =>   1
Atom   3C    basis set group =>   1
Atom   4C    basis set group =>   1
Atom   5C    basis set group =>   1
Atom   6C    basis set group =>   1
Atom   7H    basis set group =>   2
Atom   8H    basis set group =>   2
Atom   9H    basis set group =>   2
Atom  10H    basis set group =>   2
Atom  11H    basis set group =>   2
Atom  12H    basis set group =>   2
Atom  13H    basis set group =>   2
Atom  14N    basis set group =>   3
Atom  15O    basis set group =>   4
Atom  16O    basis set group =>   4
Atom  17H    basis set group =>   2
---------------------------------
AUXILIARY/J BASIS SET INFORMATION
---------------------------------
There are 4 groups of distinct atoms

 Group   1 Type C   : 12s5p4d2f1g contracted to 6s4p3d1f1g pattern {711111/2111/211/2/1}
 Group   2 Type H   : 5s2p1d contracted to 3s1p1d pattern {311/2/1}
 Group   3 Type N   : 12s5p4d2f1g contracted to 6s4p3d1f1g pattern {711111/2111/211/2/1}
 Group   4 Type O   : 12s5p4d2f1g contracted to 6s4p3d1f1g pattern {711111/2111/211/2/1}

Atom   0C    basis set group =>   1
Atom   1C    basis set group =>   1
Atom   2C    basis set group =>   1
Atom   3C    basis set group =>   1
Atom   4C    basis set group =>   1
Atom   5C    basis set group =>   1
Atom   6C    basis set group =>   1
Atom   7H    basis set group =>   2
Atom   8H    basis set group =>   2
Atom   9H    basis set group =>   2
Atom  10H    basis set group =>   2
Atom  11H    basis set group =>   2
Atom  12H    basis set group =>   2
Atom  13H    basis set group =>   2
Atom  14N    basis set group =>   3
Atom  15O    basis set group =>   4
Atom  16O    basis set group =>   4
Atom  17H    basis set group =>   2
------------------------------------------------------------------------------
                           ORCA GTO INTEGRAL CALCULATION
                           -- RI-GTO INTEGRALS CHOSEN --
------------------------------------------------------------------------------
------------------------------------------------------------------------------
                   ___                                                        
                  /   \      - P O W E R E D   B Y -                         
                 /     \                                                     
                 |  |  |   _    _      __       _____    __    __             
                 |  |  |  | |  | |    /  \     |  _  \  |  |  /  |          
                  \  \/   | |  | |   /    \    | | | |  |  | /  /          
                 / \  \   | |__| |  /  /\  \   | |_| |  |  |/  /          
                |  |  |   |  __  | /  /__\  \  |    /   |      \           
                |  |  |   | |  | | |   __   |  |    \   |  |\   \          
                \     /   | |  | | |  |  |  |  | |\  \  |  | \   \       
                 \___/    |_|  |_| |__|  |__|  |_| \__\ |__|  \__/        
                                                                              
                      - O R C A' S   B I G   F R I E N D -                    
                                      &                                       
                       - I N T E G R A L  F E E D E R -                       
                                                                              
 v1 FN, 2020, v2 2021                                                         
------------------------------------------------------------------------------


Reading SHARK input file para_ts_optfreq.SHARKINP.tmp ... ok
----------------------
SHARK INTEGRAL PACKAGE
----------------------

Number of atoms                             ...     18
Number of basis functions                   ...    180
Number of shells                            ...     84
Maximum angular momentum                    ...      2
Integral batch strategy                     ... SHARK/LIBINT Hybrid
RI-J (if used) integral strategy            ... SPLIT-RIJ (Revised 2003 algorithm where possible)
Printlevel                                  ...      1
Contraction scheme used                     ... SEGMENTED contraction
Coulomb Range Separation                    ... NOT USED
Exchange Range Separation                   ... NOT USED
Finite Nucleus Model                        ... NOT USED
Auxiliary Coulomb fitting basis             ... AVAILABLE
   # of basis functions in Aux-J            ...    578
   # of shells in Aux-J                     ...    190
   Maximum angular momentum in Aux-J        ...      4
Auxiliary J/K fitting basis                 ... NOT available
Auxiliary Correlation fitting basis         ... NOT available
Auxiliary 'external' fitting basis          ... NOT available
Integral threshold                          ...     2.500000e-11
Primitive cut-off                           ...     2.500000e-12
Primitive pair pre-selection threshold      ...     2.500000e-12

Calculating pre-screening integrals         ... done (  0.1 sec) Dimension = 84
Organizing shell pair data                  ... done (  0.1 sec)
Shell pair information
Total number of shell pairs                 ...      3570
Shell pairs after pre-screening             ...      3229
Total number of primitive shell pairs       ...     13034
Primitive shell pairs kept                  ...      8462
          la=0 lb=0:    983 shell pairs
          la=1 lb=0:   1170 shell pairs
          la=1 lb=1:    371 shell pairs
          la=2 lb=0:    405 shell pairs
          la=2 lb=1:    252 shell pairs
          la=2 lb=2:     48 shell pairs

Calculating one electron integrals          ... done (  0.1 sec)
Calculating RI/J V-Matrix + Cholesky decomp.... done (  0.1 sec)
Calculating Nuclear repulsion               ... done (  0.0 sec) ENN=    500.793014795452 Eh

SHARK setup successfully completed in   0.6 seconds

Maximum memory used throughout the entire GTOINT-calculation: 25.4 MB
-------------------------------------------------------------------------------
                                 ORCA SCF
-------------------------------------------------------------------------------

------------
SCF SETTINGS
------------
Hamiltonian:
 Density Functional     Method          .... DFT(GTOs)
 Exchange Functional    Exchange        .... B88
   X-Alpha parameter    XAlpha          ....  0.666667
   Becke's b parameter  XBeta           ....  0.004200
 Correlation Functional Correlation     .... LYP
 LDA part of GGA corr.  LDAOpt          .... VWN-5
 Gradients option       PostSCFGGA      .... off
 Hybrid DFT is turned on
   Fraction HF Exchange ScalHFX         ....  0.200000
   Scaling of DF-GGA-X  ScalDFX         ....  0.720000
   Scaling of DF-GGA-C  ScalDFC         ....  0.810000
   Scaling of DF-LDA-C  ScalLDAC        ....  1.000000
   Perturbative correction              ....  0.000000
   Density functional embedding theory  .... OFF
   NL short-range parameter             ....  4.800000
 RI-approximation to the Coulomb term is turned on
   Number of AuxJ basis functions       .... 578
   RIJ-COSX (HFX calculated with COS-X)).... on


General Settings:
 Integral files         IntName         .... para_ts_optfreq
 Hartree-Fock type      HFTyp           .... RHF
 Total Charge           Charge          ....    1
 Multiplicity           Mult            ....    1
 Number of Electrons    NEL             ....   72
 Basis Dimension        Dim             ....  180
 Nuclear Repulsion      ENuc            ....    500.7930147955 Eh

Convergence Acceleration:
 DIIS                   CNVDIIS         .... on
   Start iteration      DIISMaxIt       ....    12
   Startup error        DIISStart       ....  0.200000
   # of expansion vecs  DIISMaxEq       ....     5
   Bias factor          DIISBfac        ....   1.050
   Max. coefficient     DIISMaxC        ....  10.000
 Trust-Rad. Augm. Hess. CNVTRAH         .... auto
   Auto Start mean grad. ratio tolernc. ....  1.125000
   Auto Start start iteration           ....    20
   Auto Start num. interpolation iter.  ....    10
   Max. Number of Micro iterations      ....    16
   Max. Number of Macro iterations      .... Maxiter - #DIIS iter
   Number of Davidson start vectors     ....     2
   Converg. threshold I  (grad. norm)   ....   1.000e-05
   Converg. threshold II (energy diff.) ....   1.000e-08
   Grad. Scal. Fac. for Micro threshold ....   0.100
   Minimum threshold for Micro iter.    ....   0.010
   NR start threshold (gradient norm)   ....   0.001
   Initial trust radius                 ....   0.400
   Minimum AH scaling param. (alpha)    ....   1.000
   Maximum AH scaling param. (alpha)    .... 1000.000
   Orbital update algorithm             .... Taylor
   White noise on init. David. guess    .... on
   Maximum white noise                  ....   0.010
   Quad. conv. algorithm                .... NR
 SOSCF                  CNVSOSCF        .... on
   Start iteration      SOSCFMaxIt      ....   150
   Startup grad/error   SOSCFStart      ....  0.003300
 Level Shifting         CNVShift        .... on
   Level shift para.    LevelShift      ....    0.2500
   Turn off err/grad.   ShiftErr        ....    0.0010
 Zerner damping         CNVZerner       .... off
 Static damping         CNVDamp         .... on
   Fraction old density DampFac         ....    0.7000
   Max. Damping (<1)    DampMax         ....    0.9800
   Min. Damping (>=0)   DampMin         ....    0.0000
   Turn off err/grad.   DampErr         ....    0.1000
 Fernandez-Rico         CNVRico         .... off

SCF Procedure:
 Maximum # iterations   MaxIter         ....   125
 SCF integral mode      SCFMode         .... Direct
   Integral package                     .... SHARK and LIBINT hybrid scheme
 Reset frequency        DirectResetFreq ....    20
 Integral Threshold     Thresh          ....  2.500e-11 Eh
 Primitive CutOff       TCut            ....  2.500e-12 Eh

Convergence Tolerance:
 Convergence Check Mode ConvCheckMode   .... Total+1el-Energy
 Convergence forced     ConvForced      .... 0
 Energy Change          TolE            ....  1.000e-08 Eh
 1-El. energy change                    ....  1.000e-05 Eh
 Orbital Gradient       TolG            ....  1.000e-05
 Orbital Rotation angle TolX            ....  1.000e-05
 DIIS Error             TolErr          ....  5.000e-07


Diagonalization of the overlap matrix:
Smallest eigenvalue                        ... 3.226e-04
Time for diagonalization                   ...    0.014 sec
Threshold for overlap eigenvalues          ... 1.000e-08
Number of eigenvalues below threshold      ... 0
Time for construction of square roots      ...    0.014 sec
Total time needed                          ...    0.028 sec

Time for model grid setup =    1.266 sec

------------------------------
INITIAL GUESS: MODEL POTENTIAL
------------------------------
Loading Hartree-Fock densities                     ... done
Calculating cut-offs                               ... done
Initializing the effective Hamiltonian             ... done
Setting up the integral package (SHARK)            ... done
Starting the Coulomb interaction                   ... done (   1.0 sec)
Reading the grid                                   ... done
Mapping shells                                     ... done
Starting the XC term evaluation                    ... done (   0.9 sec)
  promolecular density results
     # of electrons  =     72.995084050
     EX              =    -61.236309419
     EC              =     -2.486357120
     EX+EC           =    -63.722666539
Transforming the Hamiltonian                       ... done (   0.0 sec)
Diagonalizing the Hamiltonian                      ... done (   0.0 sec)
Back transforming the eigenvectors                 ... done (   0.0 sec)
Now organizing SCF variables                       ... done
                      ------------------
                      INITIAL GUESS DONE (   3.2 sec)
                      ------------------
-------------------
DFT GRID GENERATION
-------------------

General Integration Accuracy     IntAcc      ... 4.388
Radial Grid Type                 RadialGrid  ... OptM3 with GC (2021)
Angular Grid (max. ang.)         AngularGrid ... 4 (Lebedev-302)
Angular grid pruning method      GridPruning ... 4 (adaptive)
Weight generation scheme         WeightScheme... Becke
Basis function cutoff            BFCut       ... 1.0000e-11
Integration weight cutoff        WCut        ... 1.0000e-14
Angular grids for H and He will be reduced by one unit
Partially contracted basis set               ... off
Rotationally invariant grid construction     ... off

Total number of grid points                  ...    85996
Total number of batches                      ...     1353
Average number of points per batch           ...       63
Average number of grid points per atom       ...     4778
Time for grid setup =    3.205 sec

--------------------
COSX GRID GENERATION
--------------------

GRIDX 1
-------
General Integration Accuracy     IntAcc      ... 3.816
Radial Grid Type                 RadialGrid  ... OptM3 with GC (2021)
Angular Grid (max. ang.)         AngularGrid ... 1 (Lebedev-50)
Angular grid pruning method      GridPruning ... 4 (adaptive)
Weight generation scheme         WeightScheme... Becke
Basis function cutoff            BFCut       ... 1.0000e-11
Integration weight cutoff        WCut        ... 1.0000e-14
Angular grids for H and He will be reduced by one unit
Partially contracted basis set               ... on
Rotationally invariant grid construction     ... off

Total number of grid points                  ...    10981
Total number of batches                      ...      180
Average number of points per batch           ...       61
Average number of grid points per atom       ...      610
UseSFitting                                  ... on

GRIDX 2
-------
General Integration Accuracy     IntAcc      ... 4.020
Radial Grid Type                 RadialGrid  ... OptM3 with GC (2021)
Angular Grid (max. ang.)         AngularGrid ... 2 (Lebedev-110)
Angular grid pruning method      GridPruning ... 4 (adaptive)
Weight generation scheme         WeightScheme... Becke
Basis function cutoff            BFCut       ... 1.0000e-11
Integration weight cutoff        WCut        ... 1.0000e-14
Angular grids for H and He will be reduced by one unit
Partially contracted basis set               ... on
Rotationally invariant grid construction     ... off

Total number of grid points                  ...    24135
Total number of batches                      ...      385
Average number of points per batch           ...       62
Average number of grid points per atom       ...     1341
UseSFitting                                  ... on

GRIDX 3
-------
General Integration Accuracy     IntAcc      ... 4.338
Radial Grid Type                 RadialGrid  ... OptM3 with GC (2021)
Angular Grid (max. ang.)         AngularGrid ... 3 (Lebedev-194)
Angular grid pruning method      GridPruning ... 4 (adaptive)
Weight generation scheme         WeightScheme... Becke
Basis function cutoff            BFCut       ... 1.0000e-11
Integration weight cutoff        WCut        ... 1.0000e-14
Angular grids for H and He will be reduced by one unit
Partially contracted basis set               ... on
Rotationally invariant grid construction     ... off

Total number of grid points                  ...    52955
Total number of batches                      ...      838
Average number of points per batch           ...       63
Average number of grid points per atom       ...     2942
UseSFitting                                  ... on

Time for X-Grid setup             =    4.548 sec

--------------
SCF ITERATIONS
--------------
ITER       Energy         Delta-E        Max-DP      RMS-DP      [F,P]     Damp
               ***  Starting incremental Fock matrix formation  ***
  0   -475.4165873699   0.000000000000 0.11264771  0.00310841  0.2708807 0.7000
  1   -475.5478235099  -0.131236139968 0.06364904  0.00178189  0.0760399 0.7000
                               ***Turning on DIIS***
  2   -475.5848741364  -0.037050626585 0.06883499  0.00259189  0.0300683 0.0000
  3   -475.6682335006  -0.083359364146 0.06669363  0.00124447  0.0396280 0.0000
  4   -475.6748252527  -0.006591752081 0.02329951  0.00035405  0.0320477 0.0000
  5   -475.6773877038  -0.002562451130 0.00423882  0.00011530  0.0036477 0.0000
                      *** Initiating the SOSCF procedure ***
                           *** Shutting down DIIS ***
                      *** Re-Reading the Fockian *** 
                      *** Removing any level shift *** 
ITER      Energy       Delta-E        Grad      Rot      Max-DP    RMS-DP
  6   -475.67745962  -0.0000719131  0.000412  0.000412  0.000967  0.000034
               *** Restarting incremental Fock matrix formation ***
  7   -475.67746312  -0.0000035002  0.000336  0.002504  0.000607  0.000033
  8   -475.67746377  -0.0000006519  0.000423  0.001283  0.000735  0.000027
  9   -475.67746514  -0.0000013670  0.000452  0.000997  0.000813  0.000021
 10   -475.67746389   0.0000012426  0.000502  0.000701  0.000413  0.000018
 11   -475.67746619  -0.0000022944  0.000115  0.000554  0.000275  0.000011
 12   -475.67746624  -0.0000000523  0.000072  0.000083  0.000167  0.000004
 13   -475.67746641  -0.0000001680  0.000034  0.000167  0.000103  0.000004
 14   -475.67746640   0.0000000076  0.000027  0.000043  0.000087  0.000002
 15   -475.67746645  -0.0000000468  0.000004  0.000044  0.000019  0.000001
 16   -475.67746645  -0.0000000002  0.000004  0.000015  0.000012  0.000000
                  ***Gradient check signals convergence***
              ***Rediagonalizing the Fockian in SOSCF/NRSCF***

               *****************************************************
               *                     SUCCESS                       *
               *           SCF CONVERGED AFTER  17 CYCLES          *
               *****************************************************

Old exchange energy                            =    -12.301788591 Eh
New exchange energy                            =    -12.301829623 Eh
Exchange energy change after final integration =     -0.000041032 Eh
Total energy after final integration           =   -475.677507478 Eh
Final COS-X integration done in                =    40.187 sec

----------------
TOTAL SCF ENERGY
----------------

Total Energy       :         -475.67750748 Eh          -12943.84303 eV

Components:
Nuclear Repulsion  :          500.79301480 Eh           13627.27073 eV
Electronic Energy  :         -976.47052227 Eh          -26571.11376 eV
One Electron Energy:        -1624.71910919 Eh          -44210.85460 eV
Two Electron Energy:          648.24858692 Eh           17639.74084 eV
Max COSX asymmetry :            0.00000300 Eh               0.00008 eV

Virial components:
Potential Energy   :         -947.02987540 Eh          -25769.99303 eV
Kinetic Energy     :          471.35236793 Eh           12826.15000 eV
Virial Ratio       :            2.00917602


DFT components:
N(Alpha)           :       36.000026510522 electrons
N(Beta)            :       36.000026510522 electrons
N(Total)           :       72.000053021043 electrons
E(X)               :      -49.006081613630 Eh       
E(C)               :       -2.894434511018 Eh       
E(XC)              :      -51.900516124648 Eh       
DFET-embed. en.    :        0.000000000000 Eh       

---------------
SCF CONVERGENCE
---------------

  Last Energy change         ...    1.6909e-09  Tolerance :   1.0000e-08
  Last MAX-Density change    ...    2.6645e-15  Tolerance :   1.0000e-07
  Last RMS-Density change    ...    4.6196e-17  Tolerance :   5.0000e-09
  Last Orbital Gradient      ...    2.3763e-06  Tolerance :   1.0000e-05
  Last Orbital Rotation      ...    1.0698e-05  Tolerance :   1.0000e-05

             **** THE GBW FILE WAS UPDATED (para_ts_optfreq.gbw) ****
             **** DENSITY para_ts_optfreq.scfp WAS UPDATED ****
             **** ENERGY FILE WAS UPDATED (para_ts_optfreq.en.tmp) ****
             **** THE GBW FILE WAS UPDATED (para_ts_optfreq.gbw) ****
             **** DENSITY para_ts_optfreq.scfp WAS UPDATED ****
----------------
ORBITAL ENERGIES
----------------

  NO   OCC          E(Eh)            E(eV) 
   0   2.0000     -19.344753      -526.3975 
   1   2.0000     -19.344551      -526.3920 
   2   2.0000     -14.724337      -400.6696 
   3   2.0000     -10.464261      -284.7470 
   4   2.0000     -10.460427      -284.6427 
   5   2.0000     -10.444071      -284.1976 
   6   2.0000     -10.432682      -283.8877 
   7   2.0000     -10.412395      -283.3357 
   8   2.0000     -10.401817      -283.0478 
   9   2.0000     -10.375858      -282.3415 
  10   2.0000      -1.334090       -36.3024 
  11   2.0000      -1.171494       -31.8780 
  12   2.0000      -1.086658       -29.5695 
  13   2.0000      -1.013715       -27.5846 
  14   2.0000      -0.968018       -26.3411 
  15   2.0000      -0.923846       -25.1391 
  16   2.0000      -0.850199       -23.1351 
  17   2.0000      -0.816151       -22.2086 
  18   2.0000      -0.794604       -21.6223 
  19   2.0000      -0.736658       -20.0455 
  20   2.0000      -0.706788       -19.2327 
  21   2.0000      -0.697745       -18.9866 
  22   2.0000      -0.679831       -18.4991 
  23   2.0000      -0.656823       -17.8731 
  24   2.0000      -0.654256       -17.8032 
  25   2.0000      -0.639410       -17.3992 
  26   2.0000      -0.621800       -16.9201 
  27   2.0000      -0.606625       -16.5071 
  28   2.0000      -0.576604       -15.6902 
  29   2.0000      -0.572446       -15.5771 
  30   2.0000      -0.546933       -14.8828 
  31   2.0000      -0.542350       -14.7581 
  32   2.0000      -0.488365       -13.2891 
  33   2.0000      -0.473215       -12.8768 
  34   2.0000      -0.471742       -12.8368 
  35   2.0000      -0.456097       -12.4110 
  36   0.0000      -0.339310        -9.2331 
  37   0.0000      -0.286970        -7.8089 
  38   0.0000      -0.220341        -5.9958 
  39   0.0000      -0.130264        -3.5447 
  40   0.0000      -0.106220        -2.8904 
  41   0.0000      -0.077643        -2.1128 
  42   0.0000      -0.076769        -2.0890 
  43   0.0000      -0.064219        -1.7475 
  44   0.0000      -0.034403        -0.9362 
  45   0.0000      -0.027057        -0.7363 
  46   0.0000      -0.019445        -0.5291 
  47   0.0000      -0.012147        -0.3305 
  48   0.0000      -0.005230        -0.1423 
  49   0.0000       0.005859         0.1594 
  50   0.0000       0.018544         0.5046 
  51   0.0000       0.038540         1.0487 
  52   0.0000       0.069260         1.8847 
  53   0.0000       0.086506         2.3540 
  54   0.0000       0.107826         2.9341 
  55   0.0000       0.138017         3.7556 
  56   0.0000       0.163276         4.4430 
  57   0.0000       0.196483         5.3466 
  58   0.0000       0.213549         5.8110 
  59   0.0000       0.218384         5.9425 
  60   0.0000       0.242992         6.6121 
  61   0.0000       0.246669         6.7122 
  62   0.0000       0.260976         7.1015 
  63   0.0000       0.280492         7.6326 
  64   0.0000       0.303454         8.2574 
  65   0.0000       0.317655         8.6438 
  66   0.0000       0.331349         9.0165 
  67   0.0000       0.338001         9.1975 
  68   0.0000       0.363419         9.8891 
  69   0.0000       0.384152        10.4533 
  70   0.0000       0.401209        10.9174 
  71   0.0000       0.407934        11.1005 
  72   0.0000       0.417494        11.3606 
  73   0.0000       0.438761        11.9393 
  74   0.0000       0.447871        12.1872 
  75   0.0000       0.465993        12.6803 
  76   0.0000       0.473659        12.8889 
  77   0.0000       0.483424        13.1546 
  78   0.0000       0.488438        13.2911 
  79   0.0000       0.496899        13.5213 
  80   0.0000       0.503966        13.7136 
  81   0.0000       0.513051        13.9608 
  82   0.0000       0.521292        14.1851 
  83   0.0000       0.524329        14.2677 
  84   0.0000       0.537497        14.6260 
  85   0.0000       0.574216        15.6252 
  86   0.0000       0.598703        16.2915 
  87   0.0000       0.632558        17.2128 
  88   0.0000       0.678891        18.4736 
  89   0.0000       0.693947        18.8833 
  90   0.0000       0.729511        19.8510 
  91   0.0000       0.731857        19.9148 
  92   0.0000       0.765912        20.8415 
  93   0.0000       0.776320        21.1247 
  94   0.0000       0.796639        21.6776 
  95   0.0000       0.832107        22.6428 
  96   0.0000       0.855178        23.2706 
  97   0.0000       0.880954        23.9720 
  98   0.0000       0.898654        24.4536 
  99   0.0000       0.932537        25.3756 
 100   0.0000       0.946285        25.7497 
 101   0.0000       0.974388        26.5144 
 102   0.0000       0.993084        27.0232 
 103   0.0000       1.037803        28.2400 
 104   0.0000       1.061841        28.8942 
 105   0.0000       1.071805        29.1653 
 106   0.0000       1.098759        29.8987 
 107   0.0000       1.164876        31.6979 
 108   0.0000       1.184666        32.2364 
 109   0.0000       1.228095        33.4182 
 110   0.0000       1.259611        34.2758 
 111   0.0000       1.307189        35.5704 
 112   0.0000       1.319993        35.9188 
 113   0.0000       1.358031        36.9539 
 114   0.0000       1.395433        37.9717 
 115   0.0000       1.434326        39.0300 
 116   0.0000       1.451399        39.4946 
 117   0.0000       1.469123        39.9769 
 118   0.0000       1.485434        40.4207 
 119   0.0000       1.512845        41.1666 
 120   0.0000       1.530007        41.6336 
 121   0.0000       1.553122        42.2626 
 122   0.0000       1.572488        42.7896 
 123   0.0000       1.585170        43.1347 
 124   0.0000       1.606917        43.7264 
 125   0.0000       1.616603        43.9900 
 126   0.0000       1.624577        44.2070 
 127   0.0000       1.652064        44.9550 
 128   0.0000       1.659607        45.1602 
 129   0.0000       1.682358        45.7793 
 130   0.0000       1.691599        46.0308 
 131   0.0000       1.738493        47.3068 
 132   0.0000       1.768155        48.1139 
 133   0.0000       1.797790        48.9204 
 134   0.0000       1.803768        49.0830 
 135   0.0000       1.828390        49.7530 
 136   0.0000       1.851602        50.3846 
 137   0.0000       1.868403        50.8418 
 138   0.0000       1.881728        51.2044 
 139   0.0000       1.919706        52.2378 
 140   0.0000       1.949482        53.0481 
 141   0.0000       1.993472        54.2451 
 142   0.0000       2.025231        55.1093 
 143   0.0000       2.039649        55.5017 
 144   0.0000       2.065790        56.2130 
 145   0.0000       2.086158        56.7672 
 146   0.0000       2.100209        57.1496 
 147   0.0000       2.148907        58.4747 
 148   0.0000       2.161968        58.8301 
 149   0.0000       2.176339        59.2212 
 150   0.0000       2.206552        60.0433 
 151   0.0000       2.241093        60.9832 
 152   0.0000       2.272354        61.8339 
 153   0.0000       2.321937        63.1831 
 154   0.0000       2.371789        64.5397 
 155   0.0000       2.406679        65.4891 
 156   0.0000       2.444240        66.5112 
 157   0.0000       2.469213        67.1907 
 158   0.0000       2.473943        67.3194 
 159   0.0000       2.480065        67.4860 
 160   0.0000       2.492432        67.8225 
 161   0.0000       2.507723        68.2386 
 162   0.0000       2.523622        68.6712 
 163   0.0000       2.541645        69.1617 
 164   0.0000       2.554825        69.5203 
 165   0.0000       2.609310        71.0029 
 166   0.0000       2.673961        72.7622 
 167   0.0000       2.703691        73.5712 
 168   0.0000       2.727098        74.2081 
 169   0.0000       2.741396        74.5972 
 170   0.0000       2.749162        74.8085 
 171   0.0000       2.766067        75.2685 
 172   0.0000       2.850576        77.5681 
 173   0.0000       2.909589        79.1739 
 174   0.0000       2.978571        81.0510 
 175   0.0000       3.056541        83.1727 
 176   0.0000       3.102423        84.4212 
 177   0.0000       3.278485        89.2121 
 178   0.0000       3.475336        94.5687 
 179   0.0000       3.490374        94.9779 

                    ********************************
                    * MULLIKEN POPULATION ANALYSIS *
                    ********************************

-----------------------
MULLIKEN ATOMIC CHARGES
-----------------------
   0 C :   -0.004822
   1 C :    0.044291
   2 C :    0.032126
   3 C :    0.171518
   4 C :    0.053993
   5 C :    0.044383
   6 C :    0.071902
   7 H :    0.068612
   8 H :    0.101790
   9 H :    0.102470
  10 H :    0.057675
  11 H :    0.098977
  12 H :    0.097934
  13 H :    0.049876
  14 N :    0.200711
  15 O :   -0.169200
  16 O :   -0.165223
  17 H :    0.142987
Sum of atomic charges:    1.0000000

--------------------------------
MULLIKEN REDUCED ORBITAL CHARGES
--------------------------------
  0 C s       :     3.131589  s :     3.131589
      pz      :     1.073993  p :     2.825596
      px      :     0.859636
      py      :     0.891967
      dz2     :     0.010562  d :     0.047636
      dxz     :     0.010731
      dyz     :     0.011100
      dx2y2   :     0.008372
      dxy     :     0.006872
  1 C s       :     3.214083  s :     3.214083
      pz      :     0.910541  p :     2.712030
      px      :     0.912870
      py      :     0.888619
      dz2     :     0.007899  d :     0.029597
      dxz     :     0.007291
      dyz     :     0.006978
      dx2y2   :     0.002960
      dxy     :     0.004468
  2 C s       :     3.240965  s :     3.240965
      pz      :     0.945442  p :     2.695530
      px      :     0.852755
      py      :     0.897333
      dz2     :     0.007623  d :     0.031379
      dxz     :     0.007565
      dyz     :     0.008120
      dx2y2   :     0.003117
      dxy     :     0.004954
  3 C s       :     2.918717  s :     2.918717
      pz      :     0.847106  p :     2.861300
      px      :     0.973624
      py      :     1.040570
      dz2     :     0.009601  d :     0.048464
      dxz     :     0.013028
      dyz     :     0.008288
      dx2y2   :     0.006049
      dxy     :     0.011499
  4 C s       :     3.228820  s :     3.228820
      pz      :     0.962422  p :     2.682001
      px      :     0.855815
      py      :     0.863763
      dz2     :     0.009352  d :     0.035186
      dxz     :     0.009693
      dyz     :     0.008697
      dx2y2   :     0.002656
      dxy     :     0.004788
  5 C s       :     3.191625  s :     3.191625
      pz      :     0.879541  p :     2.727174
      px      :     0.911048
      py      :     0.936585
      dz2     :     0.009427  d :     0.036819
      dxz     :     0.007346
      dyz     :     0.010025
      dx2y2   :     0.004190
      dxy     :     0.005832
  6 C s       :     2.960876  s :     2.960876
      pz      :     0.888368  p :     2.942293
      px      :     1.036268
      py      :     1.017656
      dz2     :     0.006304  d :     0.024929
      dxz     :     0.005310
      dyz     :     0.004917
      dx2y2   :     0.005443
      dxy     :     0.002956
  7 H s       :     0.907646  s :     0.907646
      pz      :     0.007856  p :     0.023743
      px      :     0.009236
      py      :     0.006650
  8 H s       :     0.873066  s :     0.873066
      pz      :     0.006957  p :     0.025145
      px      :     0.013032
      py      :     0.005155
  9 H s       :     0.872371  s :     0.872371
      pz      :     0.004196  p :     0.025159
      px      :     0.006187
      py      :     0.014777
 10 H s       :     0.919069  s :     0.919069
      pz      :     0.004137  p :     0.023256
      px      :     0.007720
      py      :     0.011399
 11 H s       :     0.877598  s :     0.877598
      pz      :     0.009096  p :     0.023425
      px      :     0.008831
      py      :     0.005499
 12 H s       :     0.878601  s :     0.878601
      pz      :     0.004295  p :     0.023465
      px      :     0.007608
      py      :     0.011562
 13 H s       :     0.926152  s :     0.926152
      pz      :     0.008971  p :     0.023972
      px      :     0.009048
      py      :     0.005953
 14 N s       :     3.393063  s :     3.393063
      pz      :     1.111490  p :     3.317438
      px      :     1.076279
      py      :     1.129669
      dz2     :     0.018490  d :     0.088788
      dxz     :     0.022093
      dyz     :     0.012237
      dx2y2   :     0.018798
      dxy     :     0.017171
 15 O s       :     3.913629  s :     3.913629
      pz      :     1.769175  p :     4.237256
      px      :     1.262183
      py      :     1.205898
      dz2     :     0.002445  d :     0.018316
      dxz     :     0.002588
      dyz     :     0.002114
      dx2y2   :     0.004664
      dxy     :     0.006505
 16 O s       :     3.914193  s :     3.914193
      pz      :     1.447211  p :     4.232601
      px      :     1.412909
      py      :     1.372480
      dz2     :     0.003150  d :     0.018429
      dxz     :     0.005591
      dyz     :     0.004431
      dx2y2   :     0.002445
      dxy     :     0.002813
 17 H s       :     0.833666  s :     0.833666
      pz      :     0.003892  p :     0.023347
      px      :     0.008629
      py      :     0.010826


                     *******************************
                     * LOEWDIN POPULATION ANALYSIS *
                     *******************************

----------------------
LOEWDIN ATOMIC CHARGES
----------------------
   0 C :    0.163533
   1 C :    0.005986
   2 C :    0.108691
   3 C :    0.022130
   4 C :    0.162515
   5 C :   -0.023222
   6 C :   -0.018691
   7 H :    0.054774
   8 H :    0.080166
   9 H :    0.080804
  10 H :    0.061815
  11 H :    0.067778
  12 H :    0.070552
  13 H :    0.068667
  14 N :    0.295198
  15 O :   -0.156830
  16 O :   -0.151857
  17 H :    0.107990

-------------------------------
LOEWDIN REDUCED ORBITAL CHARGES
-------------------------------
  0 C s       :     2.885976  s :     2.885976
      pz      :     1.036323  p :     2.840084
      px      :     0.873705
      py      :     0.930056
      dz2     :     0.024322  d :     0.110407
      dxz     :     0.023724
      dyz     :     0.026989
      dx2y2   :     0.017519
      dxy     :     0.017855
  1 C s       :     2.882666  s :     2.882666
      pz      :     1.036311  p :     3.033313
      px      :     0.986217
      py      :     1.010785
      dz2     :     0.022375  d :     0.078036
      dxz     :     0.019515
      dyz     :     0.019515
      dx2y2   :     0.006201
      dxy     :     0.010431
  2 C s       :     2.904790  s :     2.904790
      pz      :     1.063607  p :     2.908535
      px      :     0.921153
      py      :     0.923775
      dz2     :     0.020366  d :     0.077983
      dxz     :     0.018331
      dyz     :     0.020524
      dx2y2   :     0.006758
      dxy     :     0.012005
  3 C s       :     2.853148  s :     2.853148
      pz      :     0.933508  p :     3.007866
      px      :     1.015710
      py      :     1.058648
      dz2     :     0.022070  d :     0.116855
      dxz     :     0.033523
      dyz     :     0.019657
      dx2y2   :     0.012292
      dxy     :     0.029313
  4 C s       :     2.890762  s :     2.890762
      pz      :     1.048456  p :     2.860152
      px      :     0.870333
      py      :     0.941363
      dz2     :     0.024442  d :     0.086570
      dxz     :     0.023279
      dyz     :     0.022294
      dx2y2   :     0.005836
      dxy     :     0.010719
  5 C s       :     2.832737  s :     2.832737
      pz      :     1.062417  p :     3.087683
      px      :     1.004102
      py      :     1.021163
      dz2     :     0.026796  d :     0.102802
      dxz     :     0.020235
      dyz     :     0.029694
      dx2y2   :     0.009616
      dxy     :     0.016462
  6 C s       :     2.831092  s :     2.831092
      pz      :     0.982117  p :     3.121777
      px      :     1.077616
      py      :     1.062044
      dz2     :     0.017576  d :     0.065821
      dxz     :     0.014121
      dyz     :     0.013255
      dx2y2   :     0.013537
      dxy     :     0.007332
  7 H s       :     0.878055  s :     0.878055
      pz      :     0.022542  p :     0.067171
      px      :     0.026024
      py      :     0.018606
  8 H s       :     0.851328  s :     0.851328
      pz      :     0.018687  p :     0.068505
      px      :     0.036877
      py      :     0.012941
  9 H s       :     0.850659  s :     0.850659
      pz      :     0.011489  p :     0.068537
      px      :     0.015361
      py      :     0.041687
 10 H s       :     0.867267  s :     0.867267
      pz      :     0.012961  p :     0.070918
      px      :     0.023915
      py      :     0.034042
 11 H s       :     0.858601  s :     0.858601
      pz      :     0.026890  p :     0.073621
      px      :     0.028173
      py      :     0.018558
 12 H s       :     0.856688  s :     0.856688
      pz      :     0.013391  p :     0.072760
      px      :     0.024055
      py      :     0.035314
 13 H s       :     0.862252  s :     0.862252
      pz      :     0.025210  p :     0.069081
      px      :     0.026352
      py      :     0.017518
 14 N s       :     3.128561  s :     3.128561
      pz      :     1.135602  p :     3.396463
      px      :     1.121171
      py      :     1.139690
      dz2     :     0.036879  d :     0.179778
      dxz     :     0.047548
      dyz     :     0.023573
      dx2y2   :     0.031905
      dxy     :     0.039872
 15 O s       :     3.694722  s :     3.694722
      pz      :     1.784308  p :     4.428076
      px      :     1.346471
      py      :     1.297297
      dz2     :     0.004702  d :     0.034032
      dxz     :     0.004448
      dyz     :     0.003791
      dx2y2   :     0.006371
      dxy     :     0.014720
 16 O s       :     3.693352  s :     3.693352
      pz      :     1.526771  p :     4.424276
      px      :     1.483746
      py      :     1.413758
      dz2     :     0.004859  d :     0.034229
      dxz     :     0.011841
      dyz     :     0.008333
      dx2y2   :     0.003477
      dxy     :     0.005719
 17 H s       :     0.819004  s :     0.819004
      pz      :     0.013581  p :     0.073007
      px      :     0.026679
      py      :     0.032746


                      *****************************
                      * MAYER POPULATION ANALYSIS *
                      *****************************

  NA   - Mulliken gross atomic population
  ZA   - Total nuclear charge
  QA   - Mulliken gross atomic charge
  VA   - Mayer's total valence
  BVA  - Mayer's bonded valence
  FA   - Mayer's free valence

  ATOM       NA         ZA         QA         VA         BVA        FA
  0 C      6.0048     6.0000    -0.0048     3.8542     3.8542     0.0000
  1 C      5.9557     6.0000     0.0443     3.8678     3.8678    -0.0000
  2 C      5.9679     6.0000     0.0321     3.8802     3.8802     0.0000
  3 C      5.8285     6.0000     0.1715     3.7331     3.7331    -0.0000
  4 C      5.9460     6.0000     0.0540     3.8530     3.8530    -0.0000
  5 C      5.9556     6.0000     0.0444     3.8863     3.8863     0.0000
  6 C      5.9281     6.0000     0.0719     3.8948     3.8948     0.0000
  7 H      0.9314     1.0000     0.0686     0.9990     0.9990     0.0000
  8 H      0.8982     1.0000     0.1018     0.9916     0.9916     0.0000
  9 H      0.8975     1.0000     0.1025     0.9916     0.9916     0.0000
 10 H      0.9423     1.0000     0.0577     0.9926     0.9926    -0.0000
 11 H      0.9010     1.0000     0.0990     1.0017     1.0017     0.0000
 12 H      0.9021     1.0000     0.0979     1.0002     1.0002    -0.0000
 13 H      0.9501     1.0000     0.0499     0.9926     0.9926     0.0000
 14 N      6.7993     7.0000     0.2007     3.8511     3.8511     0.0000
 15 O      8.1692     8.0000    -0.1692     1.9909     1.9909     0.0000
 16 O      8.1652     8.0000    -0.1652     1.9990     1.9990     0.0000
 17 H      0.8570     1.0000     0.1430     0.9750     0.9750    -0.0000

  Mayer bond orders larger than 0.100000
B(  0-C ,  1-C ) :   1.1588 B(  0-C ,  4-C ) :   0.1187 B(  0-C ,  5-C ) :   1.2862 
B(  0-C ,  6-C ) :   1.0866 B(  1-C ,  2-C ) :   1.6570 B(  1-C , 10-H ) :   0.9896 
B(  2-C ,  3-C ) :   0.9780 B(  2-C , 11-H ) :   0.9647 B(  3-C ,  4-C ) :   0.9739 
B(  3-C , 14-N ) :   0.8340 B(  3-C , 17-H ) :   0.8462 B(  4-C ,  5-C ) :   1.5800 
B(  4-C , 12-H ) :   0.9554 B(  5-C , 13-H ) :   0.9920 B(  6-C ,  7-H ) :   0.9583 
B(  6-C ,  8-H ) :   0.9220 B(  6-C ,  9-H ) :   0.9208 B( 14-N , 15-O ) :   1.4884 
B( 14-N , 16-O ) :   1.4871 B( 15-O , 16-O ) :   0.3662 

-------
TIMINGS
-------

Total SCF time: 0 days 0 hours 6 min 23 sec 

Total time                  ....     383.063 sec
Sum of individual times     ....     381.826 sec  ( 99.7%)

Fock matrix formation       ....     370.253 sec  ( 96.7%)
  Split-RI-J                ....      23.881 sec  (  6.4% of F)
  Chain of spheres X        ....     290.430 sec  ( 78.4% of F)
  XC integration            ....      55.665 sec  ( 15.0% of F)
    Basis function eval.    ....      21.325 sec  ( 38.3% of XC)
    Density eval.           ....      16.221 sec  ( 29.1% of XC)
    XC-Functional eval.     ....       4.108 sec  (  7.4% of XC)
    XC-Potential eval.      ....      11.282 sec  ( 20.3% of XC)
Diagonalization             ....       0.103 sec  (  0.0%)
Density matrix formation    ....       0.044 sec  (  0.0%)
Population analysis         ....       0.086 sec  (  0.0%)
Initial guess               ....       1.938 sec  (  0.5%)
Orbital Transformation      ....       0.000 sec  (  0.0%)
Orbital Orthonormalization  ....       0.000 sec  (  0.0%)
DIIS solution               ....       0.185 sec  (  0.0%)
SOSCF solution              ....       0.198 sec  (  0.1%)
Grid generation             ....       9.019 sec  (  2.4%)

Maximum memory used throughout the entire SCF-calculation: 75.7 MB


-------------------------------------------------------------------------------
                          DFT DISPERSION CORRECTION                            
                                                                               
                                 DFTD4 V2.5                                    
-------------------------------------------------------------------------------
The B3LYP functional is recognized
Active option DFTDOPT                   ...         5   

Starting D4
-------------------------   ----------------
Dispersion correction           -0.027030485
-------------------------   ----------------


-------------------------   --------------------
FINAL SINGLE POINT ENERGY      -475.704537962406
-------------------------   --------------------

------------------------------------------------------------------------------
                         ORCA SCF GRADIENT CALCULATION
------------------------------------------------------------------------------

 ... reading COSX grid (gridx3)
Gradient of the Kohn-Sham DFT energy:
Kohn-Sham wavefunction type      ... RKS
Hartree-Fock exchange scaling    ...    0.200
Number of operators              ...    1
Number of atoms                  ...   18
Basis set dimensions             ...  180
Integral neglect threshold       ... 2.5e-11
Integral primitive cutoff        ... 2.5e-12
SHARK Integral package           ... ON

Nuc. rep. gradient       (SHARK) ... done (  0.0 sec)
HCore & Overlap gradient (SHARK) ... done (  1.1 sec)
RI-J gradient            (SHARK) ... done (  6.5 sec)
COSX-gradient                    ... done ( 55.8 sec)
Exchange-correlation gradient    ... done
Dispersion correction            ... Starting D4


------------------- 
Dispersion Gradient 
------------------- 
   1  :    0.000024757    0.000125134    0.000458096
   2  :   -0.000391453    0.000384468    0.000184797
   3  :   -0.000479730    0.000230972   -0.000174846
   4  :   -0.000072754   -0.000166435   -0.000303705
   5  :    0.000237957   -0.000453500    0.000085379
   6  :    0.000294662   -0.000288644    0.000415728
   7  :    0.000041756    0.000226204    0.000574288
   8  :    0.000026078    0.000041042    0.000140118
   9  :   -0.000023071    0.000045786    0.000156168
  10  :    0.000029741    0.000090655    0.000132569
  11  :   -0.000135373    0.000156604    0.000015296
  12  :   -0.000164810    0.000105963   -0.000088350
  13  :    0.000124182   -0.000178286    0.000002648
  14  :    0.000134305   -0.000108557    0.000101544
  15  :    0.000165881   -0.000041122   -0.000648800
  16  :    0.000307754   -0.000153426   -0.000415763
  17  :   -0.000027753    0.000117643   -0.000504742
  18  :   -0.000092131   -0.000134499   -0.000130426

  |G| =    0.001229971

done

------------------
CARTESIAN GRADIENT
------------------

   1   C   :    0.076399206   -0.095749177   -0.017303253
   2   C   :   -0.014059651    0.027025758    0.013258550
   3   C   :   -0.012165570   -0.004378223   -0.025563559
   4   C   :   -0.002956403   -0.031681675   -0.062580633
   5   C   :    0.003295977    0.017464990    0.054144796
   6   C   :   -0.047849148    0.052336467   -0.014094986
   7   C   :   -0.011161810    0.019064489    0.016637527
   8   H   :   -0.003075864    0.002348225   -0.002130731
   9   H   :    0.008938591   -0.002006113   -0.000753352
  10   H   :    0.001178385   -0.008920064    0.002137068
  11   H   :    0.001192615   -0.001756966   -0.002686578
  12   H   :    0.000221392   -0.000746239    0.004893508
  13   H   :   -0.003757002    0.002090051    0.004384924
  14   H   :   -0.002839086    0.002847879   -0.002682291
  15   N   :    0.014386063    0.067872565    0.125492214
  16   O   :    0.052523907   -0.074752622   -0.031341509
  17   O   :   -0.064196133    0.020754761   -0.068159653
  18   H   :    0.003923136    0.008277246    0.006421385

Difference to translation invariance:
           :   -0.0000013954    0.0000913550    0.0000734279

Difference to rotation invariance:
           :    0.0010137639    0.0006288410   -0.0005936279

Norm of the cartesian gradient     ...    0.2662663921
RMS gradient                       ...    0.0362342665
MAX gradient                       ...    0.1254922136

-------
TIMINGS
-------

Total SCF gradient time            ...       83.588 sec

One electron gradient       ....       1.061 sec  (  1.3%)
RI-J Coulomb gradient       ....       6.492 sec  (  7.8%)
COSX gradient               ....      55.842 sec  ( 66.8%)
XC gradient                 ....      17.811 sec  ( 21.3%)

Maximum memory used throughout the entire SCFGRAD-calculation: 60.9 MB
------------------------------------------------------------------------------
                         ORCA GEOMETRY RELAXATION STEP
------------------------------------------------------------------------------

Reading the OPT-File                    .... done
Getting information on internals        .... done
Copying old internal coords+grads       .... done
Making the new internal coordinates     .... (new redundants).... done
Validating the new internal coordinates .... (new redundants).... done
Calculating the B-matrix                .... done
Calculating the G,G- and P matrices     .... done
Transforming gradient to internals      .... done
Projecting the internal gradient        .... done
Number of atoms                         ....  18
Number of internal coordinates          ....  88
Current Energy                          ....  -475.704537962 Eh
Current gradient norm                   ....     0.266266392 Eh/bohr
Maximum allowed component of the step   ....  0.300
Current trust radius                    ....  0.300
Evaluating the initial hessian          ....  (Almloef) done
Projecting the Hessian                  .... done
Forming the augmented Hessian           .... done
Diagonalizing the augmented Hessian     .... done
Last element of RFO vector              ....  0.896327047
Lowest eigenvalues of augmented Hessian:
 -0.063654030  0.011717418  0.012984036  0.013212772  0.016348010
Length of the computed step             ....  0.494678293
Warning: the length of the step is outside the trust region - taking restricted step instead
The input lambda is                     ....    -0.063654
   iter:   1  x=   -0.108422  g=    3.455725 f(x)=     0.154707
   iter:   2  x=   -0.151643  g=    1.337852 f(x)=     0.057824
   iter:   3  x=   -0.174527  g=    0.698388 f(x)=     0.015982
   iter:   4  x=   -0.178439  g=    0.529129 f(x)=     0.002070
   iter:   5  x=   -0.178527  g=    0.506421 f(x)=     0.000045
   iter:   6  x=   -0.178527  g=    0.505924 f(x)=     0.000000
   iter:   7  x=   -0.178527  g=    0.505923 f(x)=     0.000000
   iter:   8  x=   -0.178527  g=    0.505923 f(x)=    -0.000000
The output lambda is                    ....    -0.178527 (8 iterations)
The final length of the internal step   ....  0.300000000
Converting the step to cartesian space:
 Initial RMS(Int)=    0.0319801075
Transforming coordinates:
 Iter   0:  RMS(Cart)=    0.0497937634 RMS(Int)=    0.6701315021
 Iter   1:  RMS(Cart)=    0.0031739322 RMS(Int)=    0.0021613484
 Iter   2:  RMS(Cart)=    0.0003629316 RMS(Int)=    0.0002447268
 Iter   3:  RMS(Cart)=    0.0000302658 RMS(Int)=    0.0000198517
 Iter   4:  RMS(Cart)=    0.0000023230 RMS(Int)=    0.0000014982
 Iter   5:  RMS(Cart)=    0.0000002489 RMS(Int)=    0.0000001479
 Iter   6:  RMS(Cart)=    0.0000000297 RMS(Int)=    0.0000000199
done
Storing new coordinates                 .... done

                                .--------------------.
          ----------------------|Geometry convergence|-------------------------
          Item                value                   Tolerance       Converged
          ---------------------------------------------------------------------
          RMS gradient        0.0194279695            0.0001000000      NO
          MAX gradient        0.0936254830            0.0003000000      NO
          RMS step            0.0319801075            0.0020000000      NO
          MAX step            0.1084604056            0.0040000000      NO
          ........................................................
          Max(Bonds)      0.0574      Max(Angles)    2.89
          Max(Dihed)        5.36      Max(Improp)    0.00
          ---------------------------------------------------------------------

The optimization has not yet converged - more geometry cycles are needed


    ---------------------------------------------------------------------------
                         Redundant Internal Coordinates
                            (Angstroem and degrees)

        Definition                    Value    dE/dq     Step     New-Value
    ----------------------------------------------------------------------------
     1. B(C   1,C   0)                1.4881  0.030288 -0.0251    1.4630   
     2. B(C   2,C   1)                1.3890  0.027620 -0.0196    1.3694   
     3. B(C   3,C   2)                1.5231  0.006233 -0.0091    1.5140   
     4. B(C   4,C   3)                1.5238  0.016224 -0.0160    1.5078   
     5. B(C   5,C   4)                1.3306 -0.035746  0.0211    1.3517   
     6. B(C   5,C   0)                1.3320 -0.086412  0.0500    1.3820   
     7. B(C   6,C   0)                1.5133  0.018516 -0.0170    1.4963   
     8. B(H   7,C   6)                1.0925 -0.004394  0.0043    1.0968   
     9. B(H   8,C   6)                1.0924 -0.008211  0.0081    1.1005   
    10. B(H   9,C   6)                1.0924 -0.008347  0.0082    1.1007   
    11. B(H  10,C   1)                1.0876 -0.002828  0.0028    1.0904   
    12. B(H  11,C   2)                1.0877 -0.003520  0.0034    1.0912   
    13. B(H  12,C   4)                1.0874 -0.004800  0.0047    1.0920   
    14. B(H  13,C   5)                1.0878 -0.004740  0.0046    1.0924   
    15. B(N  14,C   3)                1.4861 -0.016242  0.0150    1.5011   
    16. B(O  15,N  14)                1.3051  0.093625 -0.0574    1.2477   
    17. B(O  16,N  14)                1.3037  0.092699 -0.0566    1.2471   
    18. B(H  17,C   3)                1.0926 -0.010274  0.0102    1.1027   
    19. A(C   5,C   0,C   6)          124.08  0.003684   -0.54    123.54   
    20. A(C   1,C   0,C   6)          116.66 -0.005904    0.41    117.07   
    21. A(C   1,C   0,C   5)          119.26  0.002214    0.13    119.38   
    22. A(C   0,C   1,H  10)          119.88  0.004281   -0.32    119.56   
    23. A(C   2,C   1,H  10)          119.44  0.000465    0.10    119.54   
    24. A(C   0,C   1,C   2)          120.69 -0.004750    0.22    120.91   
    25. A(C   3,C   2,H  11)          119.04  0.009917   -0.68    118.36   
    26. A(C   1,C   2,C   3)          121.07 -0.013750    0.67    121.74   
    27. A(C   1,C   2,H  11)          119.88  0.003824    0.01    119.89   
    28. A(C   2,C   3,H  17)          107.94  0.001747   -0.01    107.93   
    29. A(C   4,C   3,H  17)          107.88  0.002268   -0.14    107.73   
    30. A(C   4,C   3,N  14)          112.13  0.007357   -0.73    111.40   
    31. A(C   2,C   3,C   4)          110.85 -0.015563    1.60    112.45   
    32. A(N  14,C   3,H  17)          106.71  0.001104   -0.68    106.03   
    33. A(C   2,C   3,N  14)          111.10  0.003595   -0.12    110.99   
    34. A(C   3,C   4,C   5)          124.95  0.015823   -1.55    123.40   
    35. A(C   5,C   4,H  12)          119.00 -0.010605    1.04    120.04   
    36. A(C   3,C   4,H  12)          116.05 -0.005214    0.51    116.56   
    37. A(C   0,C   5,C   4)          123.14  0.015911   -1.05    122.09   
    38. A(C   4,C   5,H  13)          118.09 -0.007156    0.44    118.53   
    39. A(C   0,C   5,H  13)          118.77 -0.008756    0.61    119.38   
    40. A(H   8,C   6,H   9)          108.21  0.000823   -0.29    107.92   
    41. A(H   7,C   6,H   9)          107.99 -0.002282    0.37    108.36   
    42. A(C   0,C   6,H   9)          110.54  0.002349   -0.31    110.23   
    43. A(H   7,C   6,H   8)          108.01 -0.002533    0.39    108.40   
[...]
     12       0.065791  -0.084406   0.040591   0.022752   0.001658   0.000055
     13      -0.053111  -0.054347   0.066631  -0.012276   0.000568   0.000263
     14       0.018890  -0.357220   0.286724  -0.013864   0.001316   0.000594
     15      -0.124743   0.025686   0.029925  -0.014896   0.000760   0.000232
     16       0.167932   0.087252  -0.152155   0.020672  -0.000856  -0.000675
     17       0.081731   0.292106  -0.293204   0.014913  -0.001211  -0.001136
     18      -0.008740   0.020248  -0.008219  -0.001406  -0.000396  -0.019172
     19       0.032959  -0.023738  -0.001895   0.001318   0.000535   0.035315
     20       0.047857   0.001476  -0.028181  -0.000245   0.000435   0.038486
     21       0.125299  -0.024489  -0.023513   0.002162  -0.002630  -0.226725
     22      -0.349292   0.121708   0.044448  -0.005937   0.001877   0.168835
     23      -0.438577   0.179752   0.031399  -0.010213  -0.002380  -0.190469
     24      -0.064863   0.015424   0.015042   0.000706   0.011248   0.615292
     25       0.330004  -0.112496  -0.088795   0.004357   0.001238   0.040167
     26      -0.035909  -0.015990   0.042113   0.003987  -0.006138  -0.282720
     27      -0.323750   0.103820   0.100382  -0.001742  -0.003596  -0.157041
     28       0.109805  -0.043979  -0.013044   0.001713  -0.011227  -0.628520
     29       0.057263  -0.042576   0.020166   0.005682  -0.000038   0.023711
     30       0.021679   0.187271   0.223694   0.015737   0.002054  -0.002051
     31       0.045705  -0.182448  -0.146795   0.007275  -0.000163   0.003345
     32       0.192119   0.132355   0.288370   0.036881  -0.000156   0.002401
     33       0.020959   0.186831   0.184677   0.014619   0.002495  -0.000311
     34       0.060048  -0.259934  -0.266368   0.029843  -0.005503   0.000014
     35       0.164446  -0.142966  -0.101402   0.074117   0.009246   0.000157
     36      -0.061481   0.214981  -0.206721  -0.006548  -0.008215  -0.000146
     37      -0.063439  -0.126183   0.118969  -0.039633   0.004989   0.000120
     38      -0.258440   0.289943  -0.221171  -0.070225   0.006122   0.000289
     39       0.027083   0.222286  -0.204445   0.003946  -0.000017   0.002338
     40      -0.125129  -0.227970   0.269600  -0.026762   0.001893  -0.001297
     41      -0.254751  -0.026717   0.141890  -0.031232  -0.000849   0.003070
     42      -0.010828  -0.005188   0.014609   0.586097   0.000744  -0.000131
     43       0.013947   0.003908  -0.001310  -0.550487   0.000290   0.000001
     44      -0.013020   0.001727  -0.050902   0.183608  -0.001387   0.000438
     45       0.005596   0.001864  -0.022454  -0.303330  -0.000304   0.000126
     46      -0.002853  -0.002585   0.014882   0.221269   0.000205  -0.000066
     47      -0.002177   0.003342   0.010543   0.070923   0.000216  -0.000111
     48       0.007302   0.001757   0.011082  -0.190799   0.000113  -0.000020
     49      -0.012541  -0.000076  -0.016593   0.242809  -0.000207   0.000069
     50       0.014155  -0.004775   0.020904  -0.225629   0.000352  -0.000144
     51      -0.027264   0.023668  -0.004767   0.035066  -0.652542   0.011376
     52       0.019018  -0.021331  -0.005668  -0.036865  -0.727470   0.011984
     53      -0.004734   0.003107   0.017815   0.017873  -0.194698   0.002447
                 48         49         50         51         52         53    
      0      -0.000685   0.000313   0.001773   0.001307   0.001164   0.000398
      1      -0.000525  -0.001099  -0.001313  -0.001700  -0.001035  -0.001045
      2       0.000253  -0.001739   0.001497  -0.000470   0.000562  -0.001177
      3       0.000396  -0.000420  -0.044858   0.002193  -0.016289   0.010634
      4       0.000338   0.000552   0.062137  -0.002957   0.024547  -0.015600
      5      -0.000099   0.000217   0.022740  -0.001040   0.014009  -0.008122
      6       0.000014  -0.000157   0.020890  -0.001404  -0.040530   0.023095
      7       0.000024  -0.000052  -0.016800   0.001418   0.028908  -0.016771
      8      -0.000069  -0.000477   0.021186  -0.001132  -0.050850   0.028712
      9      -0.000109   0.000157   0.000115  -0.000841   0.001200   0.001381
     10      -0.000086   0.000207   0.000419  -0.000117  -0.001878   0.000941
     11       0.000062   0.000166  -0.000129  -0.000173   0.000227   0.001082
     12      -0.000027   0.000278   0.000350   0.030740  -0.020991  -0.037700
     13      -0.000066  -0.000412  -0.000628  -0.036074   0.026415   0.046628
     14      -0.000042  -0.000242  -0.000393  -0.013222   0.013469   0.023034
     15      -0.000529  -0.002495  -0.002393  -0.045716  -0.015181  -0.027679
     16      -0.000469   0.001660   0.001405   0.029383   0.008461   0.015873
     17       0.000289  -0.002360  -0.002612  -0.045954  -0.019036  -0.033627
     18      -0.064026   0.063953  -0.000699  -0.002267  -0.000873  -0.000792
     19      -0.058144  -0.054796   0.000649   0.001950   0.000801   0.000462
     20       0.024239   0.039121  -0.000196  -0.001632  -0.000512  -0.000549
     21      -0.002283  -0.622667   0.004538   0.023876   0.008162   0.008164
     22      -0.014824   0.459077  -0.003992  -0.016948  -0.005907  -0.005511
     23       0.010707  -0.536401   0.002716   0.022033   0.007031   0.008223
     24       0.625247  -0.200174   0.003681   0.005479   0.002966   0.001284
     25       0.014560  -0.019835   0.000300   0.000596   0.000271   0.000330
     26      -0.291730   0.099039  -0.002988  -0.002094  -0.001799   0.000499
     27       0.150462   0.063461  -0.001566  -0.001613  -0.001045   0.000010
     28       0.701814   0.221417  -0.004253  -0.006132  -0.003715   0.000011
     29      -0.012387  -0.004519  -0.001074   0.000958  -0.000166   0.000695
     30      -0.000801   0.004271   0.506764  -0.022076   0.191149  -0.119476
     31      -0.000938  -0.006362  -0.705672   0.030443  -0.267131   0.167288
     32       0.000257  -0.003194  -0.262538   0.011290  -0.101423   0.063441
     33       0.000606   0.001535  -0.239884   0.013234   0.465303  -0.259710
     34      -0.000066  -0.001023   0.181321  -0.010453  -0.350043   0.195739
     35       0.000340   0.001719  -0.275242   0.016061   0.539421  -0.302579
     36       0.000386  -0.004676  -0.006999  -0.351090   0.247712   0.430446
     37       0.001138   0.005721   0.008866   0.419778  -0.297396  -0.515482
     38      -0.000005   0.002505   0.003216   0.173910  -0.124500  -0.217851
     39       0.000083   0.025342   0.030462   0.515372   0.176980   0.316179
     40       0.000186  -0.014963  -0.018929  -0.322886  -0.110482  -0.196833
     41      -0.000279   0.028538   0.031767   0.537925   0.186160   0.332533
     42       0.000004   0.000058   0.000214   0.000603  -0.000774  -0.000494
     43       0.000030  -0.000009  -0.000397  -0.000295   0.000905  -0.000022
     44      -0.000041  -0.000162   0.000256  -0.000078  -0.000386   0.000291
     45      -0.000017  -0.000054   0.000000  -0.000215   0.000158   0.000248
     46       0.000001   0.000029   0.000040   0.000199  -0.000202  -0.000190
     47       0.000015   0.000040  -0.000075  -0.000236   0.000252   0.000225
     48       0.000004   0.000004  -0.000195  -0.000065   0.000390  -0.000104
     49      -0.000007  -0.000020   0.000190   0.000010  -0.000359   0.000161
     50       0.000007   0.000047   0.000065   0.000063  -0.000149   0.000015
     51       0.000584  -0.001473  -0.001110   0.003386   0.001125  -0.006947
     52      -0.000024  -0.001326  -0.002319   0.002854   0.003392  -0.008066
     53      -0.000214  -0.000144  -0.000813   0.001876   0.001016  -0.004266


-----------
IR SPECTRUM
-----------

 Mode   freq       eps      Int      T**2         TX        TY        TZ
       cm**-1   L/(mol*cm) km/mol    a.u.
----------------------------------------------------------------------------
  7:     46.38   0.000001    0.01  0.000009  (-0.001877 -0.001647  0.001694)
  8:     68.56   0.000752    3.80  0.003424  (-0.018421 -0.032163 -0.045277)
  9:    204.88   0.000651    3.29  0.000992  ( 0.018146 -0.025453  0.003852)
 10:    210.52   0.000392    1.98  0.000581  ( 0.014096  0.011260  0.015991)
 11:    320.50   0.002341   11.83  0.002280  (-0.008355  0.007542  0.046401)
 12:    348.74   0.000076    0.38  0.000068  (-0.002506  0.005889 -0.005204)
 13:    366.17   0.000005    0.03  0.000004  (-0.000021  0.001735 -0.001161)
 14:    486.90   0.000352    1.78  0.000226  (-0.013076 -0.005491  0.004956)
 15:    492.83   0.000205    1.04  0.000130  ( 0.001225  0.010048 -0.005231)
 16:    571.73   0.001619    8.18  0.000884  ( 0.016184  0.010350 -0.022686)
 17:    604.55   0.001078    5.45  0.000557  ( 0.016684 -0.016309  0.003495)
 18:    631.33   0.005859   29.61  0.002896  (-0.033297 -0.023011  0.035468)
 19:    731.15   0.004629   23.39  0.001976  ( 0.030533  0.026212 -0.018878)
 20:    784.16   0.003868   19.55  0.001539  (-0.004159  0.007049  0.038370)
 21:    796.70   0.000299    1.51  0.000117  ( 0.007927 -0.001472  0.007208)
 22:    842.34   0.040033  202.31  0.014831  (-0.036294  0.001980  0.116233)
 23:    874.11   0.002030   10.26  0.000725  ( 0.012100  0.017027  0.016984)
 24:    912.21   0.025517  128.95  0.008729  (-0.012073  0.016620  0.091145)
 25:    979.86   0.003890   19.66  0.001239  ( 0.006450  0.002644  0.034499)
 26:    994.72   0.000662    3.34  0.000208  (-0.004858  0.011238  0.007597)
 27:   1012.09   0.000903    4.56  0.000278  ( 0.004727  0.015977 -0.000929)
 28:   1021.16   0.004792   24.22  0.001464  ( 0.027344  0.013596 -0.023063)
 29:   1046.42   0.002469   12.48  0.000736  ( 0.004186  0.012775  0.023570)
 30:   1074.64   0.001422    7.19  0.000413  ( 0.013108 -0.015254 -0.002931)
 31:   1099.52   0.017720   89.55  0.005029  ( 0.018132 -0.002929 -0.068498)
 32:   1141.09   0.001745    8.82  0.000477  ( 0.012347 -0.016497 -0.007257)
 33:   1199.34   0.006511   32.91  0.001694  (-0.000084 -0.016993 -0.037490)
 34:   1252.47   0.005793   29.27  0.001443  ( 0.005286 -0.012041 -0.035642)
 35:   1305.56   0.004925   24.89  0.001177  ( 0.020397 -0.026026 -0.009159)
 36:   1336.21   0.017233   87.09  0.004025  (-0.014061  0.033447  0.052040)
 37:   1385.30   0.000800    4.04  0.000180  (-0.000510  0.003820  0.012860)
 38:   1403.50   0.042060  212.55  0.009352  (-0.027174 -0.000838  0.092805)
 39:   1420.42   0.002934   14.83  0.000645  (-0.017864 -0.017501  0.004373)
 40:   1446.24   0.004638   23.44  0.001001  ( 0.020179 -0.020407 -0.013309)
 41:   1475.30   0.026282  132.82  0.005559  (-0.000442 -0.010483 -0.073819)
 42:   1503.11   0.006996   35.36  0.001453  ( 0.025777 -0.027999 -0.002033)
 43:   1557.51   0.012903   65.21  0.002585  ( 0.034936 -0.036233  0.007206)
 44:   1668.72   0.045183  228.34  0.008450  ( 0.006555  0.033050  0.085524)
 45:   1783.17   0.050951  257.48  0.008917  ( 0.067141 -0.063053  0.020810)
 46:   2943.84   0.012668   64.02  0.001343  (-0.020976 -0.026199 -0.014712)
 47:   3010.43   0.012454   62.94  0.001291  ( 0.002823 -0.014786 -0.032625)
 48:   3067.30   0.001339    6.77  0.000136  ( 0.008317  0.007710 -0.002755)
 49:   3167.57   0.002044   10.33  0.000201  (-0.001151  0.006138  0.012742)
 50:   3201.00   0.000724    3.66  0.000071  (-0.000346 -0.002686 -0.007956)
 51:   3205.49   0.001124    5.68  0.000109  (-0.002355  0.005532  0.008560)
 52:   3215.59   0.006464   32.67  0.000627  ( 0.016988 -0.015919  0.009237)
 53:   3217.67   0.001633    8.25  0.000158  ( 0.005456 -0.007031 -0.008896)

* The epsilon (eps) is given for a Dirac delta lineshape.
** The dipole moment derivative (T) already includes vibrational overlap.

The first frequency considered to be a vibration is 7
The total number of vibrations considered is 47


--------------------------
THERMOCHEMISTRY AT 298.15K
--------------------------

Temperature         ... 298.15 K
Pressure            ... 1.00 atm
Total Mass          ... 138.15 AMU

Throughout the following assumptions are being made:
  (1) The electronic state is orbitally nondegenerate
  (2) There are no thermally accessible electronically excited states
  (3) Hindered rotations indicated by low frequency modes are not
      treated as such but are treated as vibrations and this may
      cause some error
  (4) All equations used are the standard statistical mechanics
      equations for an ideal gas
  (5) All vibrations are strictly harmonic

freq.      46.38  E(vib)   ...       0.53 
freq.      68.56  E(vib)   ...       0.50 
freq.     204.88  E(vib)   ...       0.35 
freq.     210.52  E(vib)   ...       0.34 
freq.     320.50  E(vib)   ...       0.25 
freq.     348.74  E(vib)   ...       0.23 
freq.     366.17  E(vib)   ...       0.22 
freq.     486.90  E(vib)   ...       0.15 
freq.     492.83  E(vib)   ...       0.14 
freq.     571.73  E(vib)   ...       0.11 
freq.     604.55  E(vib)   ...       0.10 
freq.     631.33  E(vib)   ...       0.09 
freq.     731.15  E(vib)   ...       0.06 
freq.     784.16  E(vib)   ...       0.05 
freq.     796.70  E(vib)   ...       0.05 
freq.     842.34  E(vib)   ...       0.04 
freq.     874.11  E(vib)   ...       0.04 
freq.     912.21  E(vib)   ...       0.03 
freq.     979.86  E(vib)   ...       0.02 
freq.     994.72  E(vib)   ...       0.02 
freq.    1012.09  E(vib)   ...       0.02 
freq.    1021.16  E(vib)   ...       0.02 
freq.    1046.42  E(vib)   ...       0.02 
freq.    1074.64  E(vib)   ...       0.02 
freq.    1099.52  E(vib)   ...       0.02 
freq.    1141.09  E(vib)   ...       0.01 
freq.    1199.34  E(vib)   ...       0.01 
freq.    1252.47  E(vib)   ...       0.01 
freq.    1305.56  E(vib)   ...       0.01 
freq.    1336.21  E(vib)   ...       0.01 
freq.    1385.30  E(vib)   ...       0.00 
freq.    1403.50  E(vib)   ...       0.00 
freq.    1420.42  E(vib)   ...       0.00 
freq.    1446.24  E(vib)   ...       0.00 
freq.    1475.30  E(vib)   ...       0.00 
freq.    1503.11  E(vib)   ...       0.00 
freq.    1557.51  E(vib)   ...       0.00 
freq.    1668.72  E(vib)   ...       0.00 
freq.    1783.17  E(vib)   ...       0.00 
freq.    2943.84  E(vib)   ...       0.00 
freq.    3010.43  E(vib)   ...       0.00 
freq.    3067.30  E(vib)   ...       0.00 
freq.    3167.57  E(vib)   ...       0.00 
freq.    3201.00  E(vib)   ...       0.00 
freq.    3205.49  E(vib)   ...       0.00 
freq.    3215.59  E(vib)   ...       0.00 
freq.    3217.67  E(vib)   ...       0.00 

------------
INNER ENERGY
------------

The inner energy is: U= E(el) + E(ZPE) + E(vib) + E(rot) + E(trans)
    E(el)   - is the total energy from the electronic structure calculation
              = E(kin-el) + E(nuc-el) + E(el-el) + E(nuc-nuc)
    E(ZPE)  - the the zero temperature vibrational energy from the frequency calculation
    E(vib)  - the the finite temperature correction to E(ZPE) due to population
              of excited vibrational states
    E(rot)  - is the rotational thermal energy
    E(trans)- is the translational thermal energy

Summary of contributions to the inner energy U:
Electronic energy                ...   -475.76282728 Eh
Zero point energy                ...      0.13994562 Eh      87.82 kcal/mol
Thermal vibrational correction   ...      0.00556871 Eh       3.49 kcal/mol
Thermal rotational correction    ...      0.00141627 Eh       0.89 kcal/mol
Thermal translational correction ...      0.00141627 Eh       0.89 kcal/mol
-----------------------------------------------------------------------
Total thermal energy                   -475.61448040 Eh


Summary of corrections to the electronic energy:
(perhaps to be used in another calculation)
Total thermal correction                  0.00840126 Eh       5.27 kcal/mol
Non-thermal (ZPE) correction              0.13994562 Eh      87.82 kcal/mol
-----------------------------------------------------------------------
Total correction                          0.14834688 Eh      93.09 kcal/mol


--------
ENTHALPY
--------

The enthalpy is H = U + kB*T
                kB is Boltzmann's constant
Total free energy                 ...   -475.61448040 Eh 
Thermal Enthalpy correction       ...      0.00094421 Eh       0.59 kcal/mol
-----------------------------------------------------------------------
Total Enthalpy                    ...   -475.61353619 Eh


Note: Only C1 symmetry has been detected, increase convergence thresholds 
      if your molecule has a higher symmetry. Symmetry factor of 1.0 is   
      used for the rotational entropy correction. 
 

Note: Rotational entropy computed according to Herzberg 
Infrared and Raman Spectra, Chapter V,1, Van Nostrand Reinhold, 1945 
Point Group:  C1, Symmetry Number:   1  
Rotational constants in cm-1:     0.112592     0.027775     0.023284 

Vibrational entropy computed according to the QRRHO of S. Grimme
Chem.Eur.J. 2012 18 9955


-------
ENTROPY
-------

The entropy contributions are T*S = T*(S(el)+S(vib)+S(rot)+S(trans))
     S(el)   - electronic entropy
     S(vib)  - vibrational entropy
     S(rot)  - rotational entropy
     S(trans)- translational entropy
The entropies will be listed as multiplied by the temperature to get
units of energy

Electronic entropy                ...      0.00000000 Eh      0.00 kcal/mol
Vibrational entropy               ...      0.00928960 Eh      5.83 kcal/mol
Rotational entropy                ...      0.01400869 Eh      8.79 kcal/mol
Translational entropy             ...      0.01932890 Eh     12.13 kcal/mol
-----------------------------------------------------------------------
Final entropy term                ...      0.04262719 Eh     26.75 kcal/mol

In case the symmetry of your molecule has not been determined correctly
or in case you have a reason to use a different symmetry number we print 
out the resulting rotational entropy values for sn=1,12 :
 --------------------------------------------------------
|  sn= 1 | S(rot)=       0.01400869 Eh      8.79 kcal/mol|
|  sn= 2 | S(rot)=       0.01335424 Eh      8.38 kcal/mol|
|  sn= 3 | S(rot)=       0.01297140 Eh      8.14 kcal/mol|
|  sn= 4 | S(rot)=       0.01269978 Eh      7.97 kcal/mol|
|  sn= 5 | S(rot)=       0.01248909 Eh      7.84 kcal/mol|
|  sn= 6 | S(rot)=       0.01231695 Eh      7.73 kcal/mol|
|  sn= 7 | S(rot)=       0.01217140 Eh      7.64 kcal/mol|
|  sn= 8 | S(rot)=       0.01204532 Eh      7.56 kcal/mol|
|  sn= 9 | S(rot)=       0.01193411 Eh      7.49 kcal/mol|
|  sn=10 | S(rot)=       0.01183464 Eh      7.43 kcal/mol|
|  sn=11 | S(rot)=       0.01174465 Eh      7.37 kcal/mol|
|  sn=12 | S(rot)=       0.01166249 Eh      7.32 kcal/mol|
 --------------------------------------------------------


-------------------
GIBBS FREE ENERGY
-------------------

The Gibbs free energy is G = H - T*S

Total enthalpy                    ...   -475.61353619 Eh 
Total entropy correction          ...     -0.04262719 Eh    -26.75 kcal/mol
-----------------------------------------------------------------------
Final Gibbs free energy         ...   -475.65616338 Eh

For completeness - the Gibbs free energy minus the electronic energy
G-E(el)                           ...      0.10666389 Eh     66.93 kcal/mol


Timings for individual modules:

Sum of individual times         ...    36112.952 sec (= 601.883 min)
GTO integral calculation        ...       16.644 sec (=   0.277 min)   0.0 %
SCF iterations                  ...     3871.471 sec (=  64.525 min)  10.7 %
SCF Gradient evaluation         ...      999.217 sec (=  16.654 min)   2.8 %
Geometry relaxation             ...        6.270 sec (=   0.105 min)   0.0 %
Analytical frequency calculation...    31219.350 sec (= 520.322 min)  86.4 %
                             ****ORCA TERMINATED NORMALLY****
TOTAL RUN TIME: 0 days 10 hours 2 minutes 7 seconds 682 msec
