
                                 *****************
                                 * O   R   C   A *
                                 *****************

                                            #,                                       
                                            ###                                      
                                            ####                                     
                                            #####                                    
                                            ######                                   
                                           ########,                                 
                                     ,,################,,,,,                         
                               ,,#################################,,                 
                          ,,##########################################,,             
                       ,#########################################, ''#####,          
                    ,#############################################,,   '####,        
                  ,##################################################,,,,####,       
                ,###########''''           ''''###############################       
              ,#####''   ,,,,##########,,,,          '''####'''          '####       
            ,##' ,,,,###########################,,,                        '##       
           ' ,,###''''                  '''############,,,                           
         ,,##''                                '''############,,,,        ,,,,,,###''
      ,#''                                            '''#######################'''  
     '                                                          ''''####''''         
             ,#######,   #######,   ,#######,      ##                                
            ,#'     '#,  ##    ##  ,#'     '#,    #''#        ######   ,####,        
            ##       ##  ##   ,#'  ##            #'  '#       #        #'  '#        
            ##       ##  #######   ##           ,######,      #####,   #    #        
            '#,     ,#'  ##    ##  '#,     ,#' ,#      #,         ##   #,  ,#        
             '#######'   ##     ##  '#######'  #'      '#     #####' # '####'        



                  #######################################################
                  #                        -***-                        #
                  #          Department of theory and spectroscopy      #
                  #    Directorship and core code : Frank Neese         #
                  #        Max Planck Institute fuer Kohlenforschung    #
                  #                Kaiser Wilhelm Platz 1               #
                  #                 D-45470 Muelheim/Ruhr               #
                  #                      Germany                        #
                  #                                                     #
                  #                  All rights reserved                #
                  #                        -***-                        #
                  #######################################################



                         Program Version 5.0.4 -  RELEASE  -

 With contributions from (in alphabetic order):
   Daniel Aravena         : Magnetic Suceptibility
   Michael Atanasov       : Ab Initio Ligand Field Theory (pilot matlab implementation)
   Alexander A. Auer      : GIAO ZORA, VPT2 properties, NMR spectrum
   Ute Becker             : Parallelization
   Giovanni Bistoni       : ED, misc. LED, open-shell LED, HFLD
   Martin Brehm           : Molecular dynamics
   Dmytro Bykov           : SCF Hessian
   Vijay G. Chilkuri      : MRCI spin determinant printing, contributions to CSF-ICE
   Dipayan Datta          : RHF DLPNO-CCSD density
   Achintya Kumar Dutta   : EOM-CC, STEOM-CC
   Dmitry Ganyushin       : Spin-Orbit,Spin-Spin,Magnetic field MRCI
   Miquel Garcia          : C-PCM and meta-GGA Hessian, CC/C-PCM, Gaussian charge scheme
   Yang Guo               : DLPNO-NEVPT2, F12-NEVPT2, CIM, IAO-localization
   Andreas Hansen         : Spin unrestricted coupled pair/coupled cluster methods
   Benjamin Helmich-Paris : MC-RPA, TRAH-SCF, COSX integrals
   Lee Huntington         : MR-EOM, pCC
   Robert Izsak           : Overlap fitted RIJCOSX, COSX-SCS-MP3, EOM
   Marcus Kettner         : VPT2
   Christian Kollmar      : KDIIS, OOCD, Brueckner-CCSD(T), CCSD density, CASPT2, CASPT2-K
   Simone Kossmann        : Meta GGA functionals, TD-DFT gradient, OOMP2, MP2 Hessian
   Martin Krupicka        : Initial AUTO-CI
   Lucas Lang             : DCDCAS
   Marvin Lechner         : AUTO-CI (C++ implementation), FIC-MRCC
   Dagmar Lenk            : GEPOL surface, SMD
   Dimitrios Liakos       : Extrapolation schemes; Compound Job, initial MDCI parallelization
   Dimitrios Manganas     : Further ROCIS development; embedding schemes
   Dimitrios Pantazis     : SARC Basis sets
   Anastasios Papadopoulos: AUTO-CI, single reference methods and gradients
   Taras Petrenko         : DFT Hessian,TD-DFT gradient, ASA, ECA, R-Raman, ABS, FL, XAS/XES, NRVS
   Peter Pinski           : DLPNO-MP2, DLPNO-MP2 Gradient
   Christoph Reimann      : Effective Core Potentials
   Marius Retegan         : Local ZFS, SOC
   Christoph Riplinger    : Optimizer, TS searches, QM/MM, DLPNO-CCSD(T), (RO)-DLPNO pert. Triples
   Tobias Risthaus        : Range-separated hybrids, TD-DFT gradient, RPA, STAB
   Michael Roemelt        : Original ROCIS implementation
   Masaaki Saitow         : Open-shell DLPNO-CCSD energy and density
   Barbara Sandhoefer     : DKH picture change effects
   Avijit Sen             : IP-ROCIS
   Kantharuban Sivalingam : CASSCF convergence, NEVPT2, FIC-MRCI
   Bernardo de Souza      : ESD, SOC TD-DFT
   Georgi Stoychev        : AutoAux, RI-MP2 NMR, DLPNO-MP2 response
   Willem Van den Heuvel  : Paramagnetic NMR
   Boris Wezisla          : Elementary symmetry handling
   Frank Wennmohs         : Technical directorship


 We gratefully acknowledge several colleagues who have allowed us to
 interface, adapt or use parts of their codes:
   Stefan Grimme, W. Hujo, H. Kruse, P. Pracht,  : VdW corrections, initial TS optimization,
                  C. Bannwarth, S. Ehlert          DFT functionals, gCP, sTDA/sTD-DF
   Ed Valeev, F. Pavosevic, A. Kumar             : LibInt (2-el integral package), F12 methods
   Garnet Chan, S. Sharma, J. Yang, R. Olivares  : DMRG
   Ulf Ekstrom                                   : XCFun DFT Library
   Mihaly Kallay                                 : mrcc  (arbitrary order and MRCC methods)
   Jiri Pittner, Ondrej Demel                    : Mk-CCSD
   Frank Weinhold                                : gennbo (NPA and NBO analysis)
   Christopher J. Cramer and Donald G. Truhlar   : smd solvation model
   Lars Goerigk                                  : TD-DFT with DH, B97 family of functionals
   V. Asgeirsson, H. Jonsson                     : NEB implementation
   FAccTs GmbH                                   : IRC, NEB, NEB-TS, DLPNO-Multilevel, CI-OPT
                                                   MM, QMMM, 2- and 3-layer-ONIOM, Crystal-QMMM,
                                                   LR-CPCM, SF, NACMEs, symmetry and pop. for TD-DFT,
                                                   nearIR, NL-DFT gradient (VV10), updates on ESD,
                                                   ML-optimized integration grids
   S Lehtola, MJT Oliveira, MAL Marques          : LibXC Library
   Liviu Ungur et al                             : ANISO software


 Your calculation uses the libint2 library for the computation of 2-el integrals
 For citations please refer to: http://libint.valeyev.net

 Your ORCA version has been built with support for libXC version: 5.1.0
 For citations please refer to: https://tddft.org/programs/libxc/

 This ORCA versions uses:
   CBLAS   interface :  Fast vector & matrix operations
   LAPACKE interface :  Fast linear algebra routines
   Shared memory     :  Shared parallel matrices


Your calculation utilizes the atom-pairwise dispersion correction
based on tight binding partial charges (D4)
Cite in your paper:
E.Caldeweyher, C.Bannwarth, S.Grimme, J.Chem.Phys., (2017), 147, 034112.
E.Caldeweyher, S.Ehlert, A.Hansen, H.Neugebauer, S.Grimme, J.Chem.Phys., (2018), in progress.
   

================================================================================

----- Orbital basis set information -----
Your calculation utilizes the basis: def2-SVP
   F. Weigend and R. Ahlrichs, Phys. Chem. Chem. Phys. 7, 3297 (2005).

----- AuxJ basis set information -----
Your calculation utilizes the auxiliary basis: def2/J
   F. Weigend, Phys. Chem. Chem. Phys. 8, 1057 (2006).

================================================================================
                                        WARNINGS
                       Please study these warnings very carefully!
================================================================================

WARNING: Old DensityContainer found on disk!
         Will remove this file - 
         If you want to keep old densities, please start your calculation with a different basename. 


WARNING: Geometry Optimization
  ===> : Switching off AutoStart
         For restart on a previous wavefunction, please use MOREAD

INFO   : the flag for use of the SHARK integral package has been found!

================================================================================
                                       INPUT FILE
================================================================================
NAME = educt_optfreq_2.inp
|  1> !B3LYP DEF2-SVP OPT FREQ D4 SOSCF
|  2> 
|  3> * xyz 1 1
|  4>    C        0.27582        0.52998        2.84266
|  5>    C       -0.35157        0.79615        1.60448
|  6>    C       -0.12078       -0.01685        0.51150
|  7>    C        0.74244       -1.12480        0.62897
|  8>    C        1.36900       -1.40955        1.85544
|  9>    C        1.14036       -0.59442        2.94449
| 10>    C        0.05086        1.40742        4.02708
| 11>    H        1.00033        1.83494        4.37531
| 12>    H       -0.34036        0.82500        4.87194
| 13>    H       -0.63815        2.22455        3.81112
| 14>    H       -1.01856        1.64970        1.52274
| 15>    H       -0.60221        0.19424       -0.43775
| 16>    H        0.92615       -1.76042       -0.23079
| 17>    H        2.03108       -2.26616        1.94013
| 18>    H        1.62365       -0.80274        3.89458
| 19>    N       -2.35336       -0.61957      -11.06298
| 20>    O       -2.02878       -0.10889       -9.98053
| 21>    O       -1.52933       -0.92952      -12.58886
| 22> **                         ****END OF INPUT****
================================================================================

                       *****************************
                       * Geometry Optimization Run *
                       *****************************

Geometry optimization settings:
Update method            Update   .... BFGS
Choice of coordinates    CoordSys .... Z-matrix Internals
Initial Hessian          InHess   .... Almoef's Model

Convergence Tolerances:
Energy Change            TolE     ....  5.0000e-06 Eh
Max. Gradient            TolMAXG  ....  3.0000e-04 Eh/bohr
RMS Gradient             TolRMSG  ....  1.0000e-04 Eh/bohr
Max. Displacement        TolMAXD  ....  4.0000e-03 bohr
RMS Displacement         TolRMSD  ....  2.0000e-03 bohr
Strict Convergence                ....  False
------------------------------------------------------------------------------
                        ORCA OPTIMIZATION COORDINATE SETUP
------------------------------------------------------------------------------

The optimization will be done in new redundant internal coordinates
Making redundant internal coordinates   ...  (new redundants) done
Evaluating the initial hessian          ...  (Almloef) done
Evaluating the coordinates              ...  done
Calculating the B-matrix                .... done
Calculating the G-matrix                .... done
Diagonalizing the G-matrix              .... done
Small eigenvalue found = 2.292e-02
The first mode is                       ....   59
The number of degrees of freedom        ....   48

    -----------------------------------------------------------------
                    Redundant Internal Coordinates


    -----------------------------------------------------------------
         Definition                    Initial Value    Approx d2E/dq
    -----------------------------------------------------------------
      1. B(C   1,C   0)                  1.4133         0.573439   
      2. B(C   2,C   1)                  1.3816         0.644360   
      3. B(C   3,C   2)                  1.4094         0.581748   
      4. B(C   4,C   3)                  1.4064         0.588321   
      5. B(C   5,C   4)                  1.3794         0.649607   
      6. B(C   5,C   0)                  1.4220         0.555508   
      7. B(C   6,C   0)                  1.4911         0.430974   
      8. B(H   7,C   6)                  1.0980         0.349714   
      9. B(H   8,C   6)                  1.0982         0.349408   
     10. B(H   9,C   6)                  1.0904         0.359509   
     11. B(H  10,C   1)                  1.0863         0.364993   
     12. B(H  11,C   2)                  1.0851         0.366661   
     13. B(H  12,C   3)                  1.0849         0.366947   
     14. B(H  13,C   4)                  1.0860         0.365488   
     15. B(H  14,C   5)                  1.0861         0.365281   
     16. B(O  16,H  12)                 10.3207         0.000000   
     17. B(O  16,H  11)                  9.6536         0.000000   
     18. B(O  16,C   2)                 10.6645         0.000000   
     19. B(O  16,N  15)                  1.2401         0.869302   
     20. B(O  17,N  15)                  1.7616         0.127959   
     21. A(C   5,C   0,C   6)          120.0096         0.398997   
     22. A(C   1,C   0,C   6)          121.2042         0.401234   
     23. A(C   1,C   0,C   5)          118.7854         0.419698   
     24. A(C   2,C   1,H  10)          120.3574         0.356035   
     25. A(C   0,C   1,C   2)          120.5357         0.430993   
     26. A(C   0,C   1,H  10)          119.1069         0.349080   
     27. A(C   3,C   2,O  16)          100.6488         0.089148   
     28. A(C   1,C   2,O  16)          138.8937         0.089151   
     29. A(H  11,C   2,O  16)           20.2207         0.089115   
     30. A(C   3,C   2,H  11)          119.8396         0.350198   
     31. A(C   1,C   2,C   3)          119.9305         0.432108   
     32. A(C   1,C   2,H  11)          120.2300         0.356311   
     33. A(C   2,C   3,C   4)          120.3118         0.425114   
     34. A(C   4,C   3,H  12)          119.8052         0.350909   
     35. A(C   2,C   3,H  12)          119.8830         0.350244   
     36. A(C   5,C   4,H  13)          120.3722         0.356608   
     37. A(C   3,C   4,H  13)          119.9563         0.350673   
     38. A(C   3,C   4,C   5)          119.6713         0.433613   
     39. A(C   4,C   5,H  14)          120.2342         0.356574   
     40. A(C   0,C   5,C   4)          120.7636         0.429166   
     41. A(C   0,C   5,H  14)          119.0019         0.347263   
     42. A(H   8,C   6,H   9)          108.9461         0.289393   
     43. A(H   7,C   6,H   9)          108.5080         0.289432   
     44. A(C   0,C   6,H   9)          112.2701         0.331966   
     45. A(H   7,C   6,H   8)          105.6977         0.288144   
     46. A(C   0,C   6,H   8)          110.6557         0.330403   
     47. A(C   0,C   6,H   7)          110.5236         0.330451   
     48. A(C   2,H  11,O  16)          157.5528         0.089158   
     49. A(C   3,H  12,O  16)          127.3309         0.089091   
     50. A(O  16,N  15,O  17)          134.9167         0.341065   
     51. A(H  11,O  16,N  15)          156.1299         0.089218   
     52. A(C   2,O  16,N  15)          155.3867         0.089159   
     53. A(H  11,O  16,H  12)           13.8030         0.089000   
     54. A(C   2,O  16,H  12)           11.6938         0.089000   
     55. A(H  12,O  16,N  15)          146.4731         0.089125   
     56. D(C   2,C   1,C   0,C   6)    179.2215         0.022569   
     57. D(C   2,C   1,C   0,C   5)     -0.4437         0.022569   
     58. D(H  10,C   1,C   0,C   6)     -0.7633         0.022569   
     59. D(H  10,C   1,C   0,C   5)    179.5715         0.022569   
     60. D(O  16,C   2,C   1,H  10)     10.4499         0.031388   
     61. D(O  16,C   2,C   1,C   0)   -169.5347         0.031388   
     62. D(C   3,C   2,C   1,H  10)   -179.7650         0.031388   
     63. D(H  11,C   2,C   1,H  10)      0.2120         0.031388   
     64. D(C   3,C   2,C   1,C   0)      0.2504         0.031388   
     65. D(H  11,C   2,C   1,C   0)   -179.7726         0.031388   
     66. D(H  12,C   3,C   2,C   1)   -179.7612         0.025256   
     67. D(C   4,C   3,C   2,H  11)   -179.8396         0.025256   
     68. D(C   4,C   3,C   2,O  16)    173.3240         0.025256   
     69. D(H  12,C   3,C   2,H  11)      0.2618         0.025256   
     70. D(C   4,C   3,C   2,C   1)      0.1375         0.025256   
     71. D(H  12,C   3,C   2,O  16)     -6.5746         0.025256   
     72. D(H  13,C   4,C   3,H  12)     -0.2543         0.023812   
     73. D(H  13,C   4,C   3,C   2)    179.8470         0.023812   
     74. D(C   5,C   4,C   3,H  12)    179.5739         0.023812   
     75. D(C   5,C   4,C   3,C   2)     -0.3248         0.023812   
     76. D(H  14,C   5,C   4,H  13)      0.1566         0.029379   
     77. D(H  14,C   5,C   4,C   3)   -179.6709         0.029379   
     78. D(C   0,C   5,C   4,H  13)    179.9523         0.029379   
     79. D(H  14,C   5,C   0,C   6)      0.3837         0.021125   
     80. D(H  14,C   5,C   0,C   1)   -179.9471         0.021125   
     81. D(C   4,C   5,C   0,C   6)   -179.4145         0.021125   
     82. D(C   0,C   5,C   4,C   3)      0.1248         0.029379   
     83. D(C   4,C   5,C   0,C   1)      0.2548         0.021125   
     84. D(H   8,C   6,C   0,C   1)    122.7485         0.013716   
     85. D(H   7,C   6,C   0,C   5)     59.1451         0.013716   
     86. D(H   7,C   6,C   0,C   1)   -120.5160         0.013716   
     87. D(H   9,C   6,C   0,C   5)   -179.5510         0.013716   
     88. D(H   9,C   6,C   0,C   1)      0.7879         0.013716   
     89. D(H   8,C   6,C   0,C   5)    -57.5904         0.013716   
     90. D(O  16,H  11,C   2,C   3)    -19.7832         0.126935   
     91. D(O  16,H  11,C   2,C   1)    160.2399         0.126935   
     92. D(O  16,H  12,C   3,C   4)   -171.4907         0.114771   
     93. D(O  16,H  12,C   3,C   2)      8.4084         0.114771   
     94. D(H  12,O  16,N  15,O  17)    -99.9473         0.078190   
     95. D(H  11,O  16,N  15,O  17)   -120.8494         0.078190   
     96. D(C   2,O  16,N  15,O  17)   -115.7356         0.078190   
     97. D(H  11,O  16,H  12,C   3)     -7.9858         0.001500   
     98. D(C   2,O  16,H  12,C   3)     -4.7422         0.001500   
     99. D(N  15,O  16,H  12,C   3)   -150.7482         0.001500   
    100. D(H  12,O  16,H  11,C   2)     17.1686         0.001500   
    101. D(N  15,O  16,H  11,C   2)     72.8517         0.001500   
    102. D(H  12,O  16,C   2,H  11)   -159.6672         0.001500   
    103. D(H  12,O  16,C   2,C   3)      2.9512         0.001500   
    104. D(H  12,O  16,C   2,C   1)    173.9543         0.001500   
    105. D(N  15,O  16,C   2,H  11)   -111.8117         0.001500   
    106. D(N  15,O  16,C   2,C   3)     50.8067         0.001500   
    107. D(N  15,O  16,C   2,C   1)   -138.1902         0.001500   
    -----------------------------------------------------------------

Number of atoms                         .... 18
Number of degrees of freedom            .... 107

         *************************************************************
         *                GEOMETRY OPTIMIZATION CYCLE   1            *
         *************************************************************
---------------------------------
CARTESIAN COORDINATES (ANGSTROEM)
---------------------------------
  C      0.275820    0.529980    2.842660
  C     -0.351570    0.796150    1.604480
  C     -0.120780   -0.016850    0.511500
  C      0.742440   -1.124800    0.628970
  C      1.369000   -1.409550    1.855440
  C      1.140360   -0.594420    2.944490
  C      0.050860    1.407420    4.027080
  H      1.000330    1.834940    4.375310
  H     -0.340360    0.825000    4.871940
  H     -0.638150    2.224550    3.811120
  H     -1.018560    1.649700    1.522740
  H     -0.602210    0.194240   -0.437750
  H      0.926150   -1.760420   -0.230790
  H      2.031080   -2.266160    1.940130
  H      1.623650   -0.802740    3.894580
  N     -2.353360   -0.619570  -11.062980
  O     -2.028780   -0.108890   -9.980530
  O     -1.529330   -0.929520  -12.588860

----------------------------
CARTESIAN COORDINATES (A.U.)
----------------------------
  NO LB      ZA    FRAG     MASS         X           Y           Z
   0 C     6.0000    0    12.011    0.521224    1.001517    5.371849
   1 C     6.0000    0    12.011   -0.664371    1.504505    3.032028
   2 C     6.0000    0    12.011   -0.228241   -0.031842    0.966595
   3 C     6.0000    0    12.011    1.403008   -2.125564    1.188581
   4 C     6.0000    0    12.011    2.587035   -2.663663    3.506273
   5 C     6.0000    0    12.011    2.154968   -1.123291    5.564280
   6 C     6.0000    0    12.011    0.096111    2.659638    7.610078
   7 H     1.0000    0     1.008    1.890350    3.467534    8.268138
   8 H     1.0000    0     1.008   -0.643187    1.559024    9.206632
   9 H     1.0000    0     1.008   -1.205929    4.203790    7.201973
  10 H     1.0000    0     1.008   -1.924799    3.117481    2.877562
  11 H     1.0000    0     1.008   -1.138012    0.367060   -0.827228
  12 H     1.0000    0     1.008    1.750170   -3.326712   -0.436130
  13 H     1.0000    0     1.008    3.838185   -4.282422    3.666314
  14 H     1.0000    0     1.008    3.068254   -1.516959    7.359690
  15 N     7.0000    0    14.007   -4.447206   -1.170818  -20.906002
  16 O     8.0000    0    15.999   -3.833839   -0.205772  -18.860468
  17 O     8.0000    0    15.999   -2.890015   -1.756538  -23.789498

--------------------------------
INTERNAL COORDINATES (ANGSTROEM)
--------------------------------
 C      0   0   0     0.000000000000     0.00000000     0.00000000
 C      1   0   0     1.413348645381     0.00000000     0.00000000
 C      2   1   0     1.381607145501   120.53569615     0.00000000
 C      3   2   1     1.409432925612   119.93045089     0.25042170
 C      4   3   2     1.406374294774   120.31177134     0.13745359
 C      5   4   3     1.379399532043   119.67131210   359.67522430
 C      1   2   3     1.491093119694   121.20417455   179.22151706
 H      7   1   2     1.097966649858   110.52360603   239.48402176
 H      7   1   2     1.098205155879   110.65568389   122.74851050
 H      7   1   2     1.090447127833   112.27010652     0.78792335
 H      2   1   3     1.086326235622   119.10693248   180.01519585
 H      3   2   1     1.085084971558   120.22998172   180.22736445
 H      4   3   2     1.084872990769   119.88296191   180.23884100
 H      5   4   3     1.085957188199   119.95630721   179.84704037
 H      6   5   4     1.086111161254   120.23421801   180.32911143
 N     12   3   2    10.799274308559   156.63573316   166.66845543
 O     16  12   3     1.240098480485    21.20671839   246.92890210
 O     16  12   3     1.761648153804   142.14963832   329.14383810

---------------------------
INTERNAL COORDINATES (A.U.)
---------------------------
 C      0   0   0     0.000000000000     0.00000000     0.00000000
 C      1   0   0     2.670841871518     0.00000000     0.00000000
 C      2   1   0     2.610859129666   120.53569615     0.00000000
 C      3   2   1     2.663442233539   119.93045089     0.25042170
 C      4   3   2     2.657662258909   120.31177134     0.13745359
 C      5   4   3     2.606687344820   119.67131210   359.67522430
 C      1   2   3     2.817757636397   121.20417455   179.22151706
 H      7   1   2     2.074856272410   110.52360603   239.48402176
 H      7   1   2     2.075306983472   110.65568389   122.74851050
 H      7   1   2     2.060646435126   112.27010652     0.78792335
 H      2   1   3     2.052859077419   119.10693248   180.01519585
 H      3   2   1     2.050513428277   120.22998172   180.22736445
 H      4   3   2     2.050112842641   119.88296191   180.23884100
 H      5   4   3     2.052161678858   119.95630721   179.84704037
 H      6   5   4     2.052452645765   120.23421801   180.32911143
 N     12   3   2    20.407670888268   156.63573316   166.66845543
 O     16  12   3     2.343446507208    21.20671839   246.92890210
 O     16  12   3     3.329032555017   142.14963832   329.14383810

---------------------
BASIS SET INFORMATION
---------------------
There are 4 groups of distinct atoms

 Group   1 Type C   : 7s4p1d contracted to 3s2p1d pattern {511/31/1}
 Group   2 Type H   : 4s1p contracted to 2s1p pattern {31/1}
 Group   3 Type N   : 7s4p1d contracted to 3s2p1d pattern {511/31/1}
 Group   4 Type O   : 7s4p1d contracted to 3s2p1d pattern {511/31/1}

Atom   0C    basis set group =>   1
Atom   1C    basis set group =>   1
Atom   2C    basis set group =>   1
Atom   3C    basis set group =>   1
Atom   4C    basis set group =>   1
Atom   5C    basis set group =>   1
Atom   6C    basis set group =>   1
Atom   7H    basis set group =>   2
Atom   8H    basis set group =>   2
Atom   9H    basis set group =>   2
Atom  10H    basis set group =>   2
Atom  11H    basis set group =>   2
Atom  12H    basis set group =>   2
Atom  13H    basis set group =>   2
Atom  14H    basis set group =>   2
Atom  15N    basis set group =>   3
Atom  16O    basis set group =>   4
Atom  17O    basis set group =>   4
---------------------------------
AUXILIARY/J BASIS SET INFORMATION
---------------------------------
There are 4 groups of distinct atoms

 Group   1 Type C   : 12s5p4d2f1g contracted to 6s4p3d1f1g pattern {711111/2111/211/2/1}
 Group   2 Type H   : 5s2p1d contracted to 3s1p1d pattern {311/2/1}
 Group   3 Type N   : 12s5p4d2f1g contracted to 6s4p3d1f1g pattern {711111/2111/211/2/1}
 Group   4 Type O   : 12s5p4d2f1g contracted to 6s4p3d1f1g pattern {711111/2111/211/2/1}

Atom   0C    basis set group =>   1
Atom   1C    basis set group =>   1
Atom   2C    basis set group =>   1
Atom   3C    basis set group =>   1
Atom   4C    basis set group =>   1
Atom   5C    basis set group =>   1
Atom   6C    basis set group =>   1
Atom   7H    basis set group =>   2
Atom   8H    basis set group =>   2
Atom   9H    basis set group =>   2
Atom  10H    basis set group =>   2
Atom  11H    basis set group =>   2
Atom  12H    basis set group =>   2
Atom  13H    basis set group =>   2
Atom  14H    basis set group =>   2
Atom  15N    basis set group =>   3
Atom  16O    basis set group =>   4
Atom  17O    basis set group =>   4
------------------------------------------------------------------------------
                           ORCA GTO INTEGRAL CALCULATION
                           -- RI-GTO INTEGRALS CHOSEN --
------------------------------------------------------------------------------
------------------------------------------------------------------------------
                   ___                                                        
                  /   \      - P O W E R E D   B Y -                         
                 /     \                                                     
                 |  |  |   _    _      __       _____    __    __             
                 |  |  |  | |  | |    /  \     |  _  \  |  |  /  |          
                  \  \/   | |  | |   /    \    | | | |  |  | /  /          
                 / \  \   | |__| |  /  /\  \   | |_| |  |  |/  /          
                |  |  |   |  __  | /  /__\  \  |    /   |      \           
                |  |  |   | |  | | |   __   |  |    \   |  |\   \          
                \     /   | |  | | |  |  |  |  | |\  \  |  | \   \       
                 \___/    |_|  |_| |__|  |__|  |_| \__\ |__|  \__/        
                                                                              
                      - O R C A' S   B I G   F R I E N D -                    
                                      &                                       
                       - I N T E G R A L  F E E D E R -                       
                                                                              
 v1 FN, 2020, v2 2021                                                         
------------------------------------------------------------------------------


Reading SHARK input file educt_optfreq_2.SHARKINP.tmp ... ok
----------------------
SHARK INTEGRAL PACKAGE
----------------------

Number of atoms                             ...     18
Number of basis functions                   ...    180
Number of shells                            ...     84
Maximum angular momentum                    ...      2
Integral batch strategy                     ... SHARK/LIBINT Hybrid
RI-J (if used) integral strategy            ... SPLIT-RIJ (Revised 2003 algorithm where possible)
Printlevel                                  ...      1
Contraction scheme used                     ... SEGMENTED contraction
Coulomb Range Separation                    ... NOT USED
Exchange Range Separation                   ... NOT USED
Finite Nucleus Model                        ... NOT USED
Auxiliary Coulomb fitting basis             ... AVAILABLE
   # of basis functions in Aux-J            ...    578
   # of shells in Aux-J                     ...    190
   Maximum angular momentum in Aux-J        ...      4
Auxiliary J/K fitting basis                 ... NOT available
Auxiliary Correlation fitting basis         ... NOT available
Auxiliary 'external' fitting basis          ... NOT available
Integral threshold                          ...     2.500000e-11
Primitive cut-off                           ...     2.500000e-12
Primitive pair pre-selection threshold      ...     2.500000e-12

Calculating pre-screening integrals         ... done (  0.1 sec) Dimension = 84
Organizing shell pair data                  ... done (  0.1 sec)
Shell pair information
Total number of shell pairs                 ...      3570
Shell pairs after pre-screening             ...      2300
Total number of primitive shell pairs       ...     13034
Primitive shell pairs kept                  ...      6339
          la=0 lb=0:    720 shell pairs
          la=1 lb=0:    837 shell pairs
          la=1 lb=1:    262 shell pairs
          la=2 lb=0:    279 shell pairs
          la=2 lb=1:    168 shell pairs
          la=2 lb=2:     34 shell pairs

Calculating one electron integrals          ... done (  0.1 sec)
Calculating RI/J V-Matrix + Cholesky decomp.... done (  0.1 sec)
Calculating Nuclear repulsion               ... done (  0.0 sec) ENN=    366.891026539658 Eh

SHARK setup successfully completed in   0.6 seconds

Maximum memory used throughout the entire GTOINT-calculation: 19.3 MB
-------------------------------------------------------------------------------
                                 ORCA SCF
-------------------------------------------------------------------------------

------------
SCF SETTINGS
------------
Hamiltonian:
 Density Functional     Method          .... DFT(GTOs)
 Exchange Functional    Exchange        .... B88
   X-Alpha parameter    XAlpha          ....  0.666667
   Becke's b parameter  XBeta           ....  0.004200
 Correlation Functional Correlation     .... LYP
 LDA part of GGA corr.  LDAOpt          .... VWN-5
 Gradients option       PostSCFGGA      .... off
 Hybrid DFT is turned on
   Fraction HF Exchange ScalHFX         ....  0.200000
   Scaling of DF-GGA-X  ScalDFX         ....  0.720000
   Scaling of DF-GGA-C  ScalDFC         ....  0.810000
   Scaling of DF-LDA-C  ScalLDAC        ....  1.000000
   Perturbative correction              ....  0.000000
   Density functional embedding theory  .... OFF
   NL short-range parameter             ....  4.800000
 RI-approximation to the Coulomb term is turned on
   Number of AuxJ basis functions       .... 578
   RIJ-COSX (HFX calculated with COS-X)).... on


General Settings:
 Integral files         IntName         .... educt_optfreq_2
 Hartree-Fock type      HFTyp           .... RHF
 Total Charge           Charge          ....    1
 Multiplicity           Mult            ....    1
 Number of Electrons    NEL             ....   72
 Basis Dimension        Dim             ....  180
 Nuclear Repulsion      ENuc            ....    366.8910265397 Eh

Convergence Acceleration:
 DIIS                   CNVDIIS         .... on
   Start iteration      DIISMaxIt       ....    12
   Startup error        DIISStart       ....  0.200000
   # of expansion vecs  DIISMaxEq       ....     5
   Bias factor          DIISBfac        ....   1.050
   Max. coefficient     DIISMaxC        ....  10.000
 Trust-Rad. Augm. Hess. CNVTRAH         .... auto
   Auto Start mean grad. ratio tolernc. ....  1.125000
   Auto Start start iteration           ....    20
   Auto Start num. interpolation iter.  ....    10
   Max. Number of Micro iterations      ....    16
   Max. Number of Macro iterations      .... Maxiter - #DIIS iter
   Number of Davidson start vectors     ....     2
   Converg. threshold I  (grad. norm)   ....   1.000e-05
   Converg. threshold II (energy diff.) ....   1.000e-08
   Grad. Scal. Fac. for Micro threshold ....   0.100
   Minimum threshold for Micro iter.    ....   0.010
   NR start threshold (gradient norm)   ....   0.001
   Initial trust radius                 ....   0.400
   Minimum AH scaling param. (alpha)    ....   1.000
   Maximum AH scaling param. (alpha)    .... 1000.000
   Orbital update algorithm             .... Taylor
   White noise on init. David. guess    .... on
   Maximum white noise                  ....   0.010
   Quad. conv. algorithm                .... NR
 SOSCF                  CNVSOSCF        .... on
   Start iteration      SOSCFMaxIt      ....   150
   Startup grad/error   SOSCFStart      ....  0.003300
 Level Shifting         CNVShift        .... on
   Level shift para.    LevelShift      ....    0.2500
   Turn off err/grad.   ShiftErr        ....    0.0010
 Zerner damping         CNVZerner       .... off
 Static damping         CNVDamp         .... on
   Fraction old density DampFac         ....    0.7000
   Max. Damping (<1)    DampMax         ....    0.9800
   Min. Damping (>=0)   DampMin         ....    0.0000
   Turn off err/grad.   DampErr         ....    0.1000
 Fernandez-Rico         CNVRico         .... off

SCF Procedure:
 Maximum # iterations   MaxIter         ....   125
 SCF integral mode      SCFMode         .... Direct
   Integral package                     .... SHARK and LIBINT hybrid scheme
 Reset frequency        DirectResetFreq ....    20
 Integral Threshold     Thresh          ....  2.500e-11 Eh
 Primitive CutOff       TCut            ....  2.500e-12 Eh

Convergence Tolerance:
 Convergence Check Mode ConvCheckMode   .... Total+1el-Energy
 Convergence forced     ConvForced      .... 0
 Energy Change          TolE            ....  1.000e-08 Eh
 1-El. energy change                    ....  1.000e-05 Eh
 Orbital Gradient       TolG            ....  1.000e-05
 Orbital Rotation angle TolX            ....  1.000e-05
 DIIS Error             TolErr          ....  5.000e-07


Diagonalization of the overlap matrix:
Smallest eigenvalue                        ... 3.082e-04
Time for diagonalization                   ...    0.013 sec
Threshold for overlap eigenvalues          ... 1.000e-08
Number of eigenvalues below threshold      ... 0
Time for construction of square roots      ...    0.028 sec
Total time needed                          ...    0.041 sec

Time for model grid setup =    1.307 sec

------------------------------
INITIAL GUESS: MODEL POTENTIAL
------------------------------
Loading Hartree-Fock densities                     ... done
Calculating cut-offs                               ... done
Initializing the effective Hamiltonian             ... done
Setting up the integral package (SHARK)            ... done
Starting the Coulomb interaction                   ... done (   0.7 sec)
Reading the grid                                   ... done
Mapping shells                                     ... done
Starting the XC term evaluation                    ... done (   1.1 sec)
  promolecular density results
     # of electrons  =     72.990410177
     EX              =    -61.076033752
     EC              =     -2.450138745
     EX+EC           =    -63.526172497
Transforming the Hamiltonian                       ... done (   0.0 sec)
Diagonalizing the Hamiltonian                      ... done (   0.0 sec)
Back transforming the eigenvectors                 ... done (   0.0 sec)
Now organizing SCF variables                       ... done
                      ------------------
                      INITIAL GUESS DONE (   3.2 sec)
                      ------------------
-------------------
DFT GRID GENERATION
-------------------

General Integration Accuracy     IntAcc      ... 4.388
Radial Grid Type                 RadialGrid  ... OptM3 with GC (2021)
Angular Grid (max. ang.)         AngularGrid ... 4 (Lebedev-302)
Angular grid pruning method      GridPruning ... 4 (adaptive)
Weight generation scheme         WeightScheme... Becke
Basis function cutoff            BFCut       ... 1.0000e-11
Integration weight cutoff        WCut        ... 1.0000e-14
Angular grids for H and He will be reduced by one unit
Partially contracted basis set               ... off
Rotationally invariant grid construction     ... off

Total number of grid points                  ...    86404
Total number of batches                      ...     1360
Average number of points per batch           ...       63
Average number of grid points per atom       ...     4800
Time for grid setup =    3.730 sec

--------------------
COSX GRID GENERATION
--------------------

GRIDX 1
-------
General Integration Accuracy     IntAcc      ... 3.816
Radial Grid Type                 RadialGrid  ... OptM3 with GC (2021)
Angular Grid (max. ang.)         AngularGrid ... 1 (Lebedev-50)
Angular grid pruning method      GridPruning ... 4 (adaptive)
Weight generation scheme         WeightScheme... Becke
Basis function cutoff            BFCut       ... 1.0000e-11
Integration weight cutoff        WCut        ... 1.0000e-14
Angular grids for H and He will be reduced by one unit
Partially contracted basis set               ... on
Rotationally invariant grid construction     ... off

Total number of grid points                  ...    11023
Total number of batches                      ...      179
Average number of points per batch           ...       61
Average number of grid points per atom       ...      612
UseSFitting                                  ... on

GRIDX 2
-------
General Integration Accuracy     IntAcc      ... 4.020
Radial Grid Type                 RadialGrid  ... OptM3 with GC (2021)
Angular Grid (max. ang.)         AngularGrid ... 2 (Lebedev-110)
Angular grid pruning method      GridPruning ... 4 (adaptive)
Weight generation scheme         WeightScheme... Becke
Basis function cutoff            BFCut       ... 1.0000e-11
Integration weight cutoff        WCut        ... 1.0000e-14
Angular grids for H and He will be reduced by one unit
Partially contracted basis set               ... on
Rotationally invariant grid construction     ... off

Total number of grid points                  ...    24401
Total number of batches                      ...      391
Average number of points per batch           ...       62
Average number of grid points per atom       ...     1356
UseSFitting                                  ... on

GRIDX 3
-------
General Integration Accuracy     IntAcc      ... 4.338
Radial Grid Type                 RadialGrid  ... OptM3 with GC (2021)
Angular Grid (max. ang.)         AngularGrid ... 3 (Lebedev-194)
Angular grid pruning method      GridPruning ... 4 (adaptive)
Weight generation scheme         WeightScheme... Becke
Basis function cutoff            BFCut       ... 1.0000e-11
Integration weight cutoff        WCut        ... 1.0000e-14
Angular grids for H and He will be reduced by one unit
Partially contracted basis set               ... on
Rotationally invariant grid construction     ... off

Total number of grid points                  ...    53830
Total number of batches                      ...      850
Average number of points per batch           ...       63
Average number of grid points per atom       ...     2991
UseSFitting                                  ... on

Time for X-Grid setup             =    7.052 sec

--------------
SCF ITERATIONS
--------------
ITER       Energy         Delta-E        Max-DP      RMS-DP      [F,P]     Damp
               ***  Starting incremental Fock matrix formation  ***
  0   -475.0562933161   0.000000000000 0.30164441  0.00483715  0.2495159 0.7000
  1   -475.2384625036  -0.182169187511 0.07368713  0.00169656  0.0964826 0.7000
                               ***Turning on DIIS***
  2   -475.3751863193  -0.136723815732 0.16712938  0.00370674  0.0311367 0.0000
  3   -475.3699187599   0.005267559460 0.03084665  0.00075105  0.0904358 0.0000
  4   -475.3980109339  -0.028092174016 0.03268200  0.00077058  0.0748914 0.0000
  5   -475.4136037408  -0.015592806946 0.04613219  0.00085959  0.0580861 0.0000
  6   -475.4224474782  -0.008843737380 0.40356232  0.00833572  0.0433391 0.0000
  7   -474.8809000629   0.541547415349 0.00410061  0.00008419  0.3272461 0.7000
  8   -474.8786188087   0.002281254146 0.00642142  0.00010814  0.3262382 0.7000
  9   -474.8799555412  -0.001336732437 0.01090601  0.00018372  0.3197427 0.7000
 10   -474.8916124253  -0.011656884181 0.00762433  0.00015181  0.3023476 0.7000
 11   -474.8976140541  -0.006001628797 0.25978205  0.00568853  0.2943423 0.7000
 12   -474.9766523464  -0.079038292280 0.09738856  0.00238015  0.1347004 0.7000
 13   -475.1136691270  -0.137016780581 0.18499500  0.00528894  0.0818280 0.0000
 14   -475.2957514091  -0.182082282090 0.00816456  0.00025392  0.1505623 0.7000
 15   -475.3127821198  -0.017030710670 0.01173499  0.00030545  0.1399851 0.7000
 16   -475.3316282806  -0.018846160867 0.10709032  0.00265506  0.1276288 0.7000
 17   -475.4388334528  -0.107205172198 0.05566278  0.00179763  0.1561976 0.7000
 18   -475.4055093320   0.033324120864 0.09148619  0.00190838  0.1931706 0.7000
 19   -475.3739605170   0.031548814923 0.16205401  0.00397728  0.0993236 0.0000
               *** Restarting incremental Fock matrix formation ***
                                   *** Resetting DIIS ***

 WARNING: the maximum gradient error descreased on average only by a factor   1.0
          during the last 20 iterations

                      *** Initiating the TRAH-SCF procedure ***


TRAH GRIDX
----------

General Integration Accuracy     IntAcc      ... 3.067
Radial Grid Type                 RadialGrid  ... OptM3 with GC (2021)
Angular Grid (max. ang.)         AngularGrid ... 1 (Lebedev-50)
Angular grid pruning method      GridPruning ... 4 (adaptive)
Weight generation scheme         WeightScheme... Becke
Basis function cutoff            BFCut       ... 1.0000e-11
Integration weight cutoff        WCut        ... 1.0000e-14
Angular grids for H and He will be reduced by one unit
Partially contracted basis set               ... on
Rotationally invariant grid construction     ... off

Total number of grid points                  ...     5812
Total number of batches                      ...      102
Average number of points per batch           ...       56
Average number of grid points per atom       ...      323


TRAH GRID
---------

General Integration Accuracy     IntAcc      ... 3.467
Radial Grid Type                 RadialGrid  ... OptM3 with GC (2021)
Angular Grid (max. ang.)         AngularGrid ... 1 (Lebedev-50)
Angular grid pruning method      GridPruning ... 4 (adaptive)
Weight generation scheme         WeightScheme... Becke
Basis function cutoff            BFCut       ... 1.0000e-11
Integration weight cutoff        WCut        ... 1.0000e-14
Angular grids for H and He will be reduced by one unit
Partially contracted basis set               ... off
Rotationally invariant grid construction     ... off

Total number of grid points                  ...    12718
Total number of batches                      ...      207
Average number of points per batch           ...       61
Average number of grid points per atom       ...      707

 --------------------------------------------------------------------------------------------
   Iter.        energy            ||Error||_2        Shift      TRadius  Mac/Mic        Rej.
 --------------------------------------------------------------------------------------------
WARNING: 109 diagonal Hessian elements are negative!
    0       -474.979921441039     1.735089e+00                     0.400 (TRAH MAcro)   No
WARNING : negative HOMO - LUMO gap : -0.794982
    0     dE    -1.529044e-01     8.423595e-01    -2.9710e-01      0.171 (TRAH MIcro)
    0     dE    -1.810423e-01     3.101654e-01    -3.4393e-01      0.230 (TRAH MIcro)
    0     dE    -1.906906e-01     1.224109e+00    -3.5466e-01      0.275 (TRAH MIcro)
    0     dE    -1.471204e-01     2.919894e-01    -5.0941e+00      0.127 (TRAH MIcro)
    0     dE    -1.487186e-01     4.135629e-02    -5.1434e+00      0.127 (TRAH MIcro)
    0     dE    -1.487698e-01     3.751825e-03    -5.1449e+00      0.127 (TRAH MIcro)
WARNING: 74 diagonal Hessian elements are negative!
    1       -475.128681674291     6.568839e-01                     0.480 (TRAH MAcro)   No
WARNING : negative HOMO - LUMO gap : -0.648649
    1     dE    -2.713136e-02     2.793573e-01    -5.3900e-02      0.082 (TRAH MIcro)
    1     dE    -3.460503e-02     1.483911e-01    -6.8123e-02      0.126 (TRAH MIcro)
    1     dE    -3.578900e-02     1.328928e-01    -7.0306e-02      0.135 (TRAH MIcro)
    1     dE    -1.470697e-01     1.860664e+00    -1.4030e+00      0.410 (TRAH MIcro)
    1     dE    -2.876179e-02     7.213321e-02    -3.2636e+00      0.069 (TRAH MIcro)
    1     dE    -2.906780e-02     2.009933e-02    -3.2987e+00      0.069 (TRAH MIcro)
    1     dE    -2.909636e-02     2.567388e-03    -3.3007e+00      0.069 (TRAH MIcro)
WARNING: 65 diagonal Hessian elements are negative!
    2       -475.157874693076     2.315840e-01                     0.576 (TRAH MAcro)   No
WARNING : negative HOMO - LUMO gap : -0.596182
    2     dE    -4.804439e-03     1.324242e-01    -9.5924e-03      0.041 (TRAH MIcro)
    2     dE    -6.915658e-03     1.282055e-01    -1.3752e-02      0.076 (TRAH MIcro)
    2     dE    -4.966630e-02     1.361184e+00    -1.0805e+00      0.281 (TRAH MIcro)
    2     dE    -2.056668e-01     2.450957e-01    -2.3781e+00      0.412 (TRAH MIcro)
    2     dE    -4.049596e-01     8.124361e-02    -2.4155e+00      0.576 (TRAH MIcro)
    2     dE    -4.053301e-01     2.222741e-02    -2.4179e+00      0.576 (TRAH MIcro)
    2     dE    -4.053551e-01     5.326583e-03    -2.4180e+00      0.576 (TRAH MIcro)
WARNING: 3 diagonal Hessian elements are negative!
    3       -475.409019223907     7.231957e-01                     0.576 (TRAH MAcro)   No
WARNING : negative HOMO - LUMO gap : -0.120671
    3     dE    -5.591897e-02     9.169364e-01    -1.0934e-01      0.151 (TRAH MIcro)
    3     dE    -1.519434e-01     6.060838e-01    -2.5736e-01      0.425 (TRAH MIcro)
    3     dE    -1.608708e-01     3.523308e-01    -2.6875e-01      0.444 (TRAH MIcro)
    3     dE    -1.677938e-01     8.662548e-02    -2.7678e-01      0.461 (TRAH MIcro)
    3     dE    -1.724091e-01     1.875011e-01    -2.8019e-01      0.480 (TRAH MIcro)
    3     dE    -1.751392e-01     1.682133e-01    -5.2693e-01      0.462 (TRAH MIcro)
    3     dE    -1.447544e-01     8.898449e-02    -7.8513e-01      0.335 (TRAH MIcro)
    3     dE    -1.448153e-01     1.732179e-02    -7.8647e-01      0.335 (TRAH MIcro)
    3     dE    -1.447612e-01     5.471517e-03    -7.8654e-01      0.334 (TRAH MIcro)
    4       -475.535837115366     1.874146e-01                     0.691 (TRAH MAcro)   No
WARNING : small    HOMO - LUMO gap : 0.012118
    4     dE    -3.488582e-03     2.518915e-01    -6.9658e-03      0.040 (TRAH MIcro)
    4     dE    -4.961743e-03     1.436669e-01    -9.8784e-03      0.068 (TRAH MIcro)
    4     dE    -6.994055e-03     1.042825e-01    -1.3812e-02      0.113 (TRAH MIcro)
    4     dE    -8.148574e-03     5.755379e-02    -1.5943e-02      0.149 (TRAH MIcro)
    4     dE    -8.569487e-03     5.407558e-02    -1.6611e-02      0.178 (TRAH MIcro)
    4     dE    -8.828668e-03     2.763969e-02    -1.6977e-02      0.200 (TRAH MIcro)
    4     dE    -8.927885e-03     7.680623e-03    -1.7094e-02      0.211 (TRAH MIcro)
    5       -475.544282070667     7.281165e-02                     0.829 (TRAH MAcro)   No
WARNING : small    HOMO - LUMO gap : 0.003069
    5     dE    -2.804106e-04     3.928671e-02    -5.6079e-04      0.008 (TRAH MIcro)
    5     dE    -2.962553e-04     3.183434e-02    -5.9246e-04      0.009 (TRAH MIcro)
    5     dE    -3.818352e-04     1.406967e-02    -7.6352e-04      0.014 (TRAH MIcro)
    5     dE    -3.968126e-04     9.003409e-03    -7.9343e-04      0.016 (TRAH MIcro)
    5     dE    -4.051454e-04     3.091567e-03    -8.1005e-04      0.017 (TRAH MIcro)
    6       -475.544688223689     3.265700e-03                     0.995 (TRAH MAcro)   No
WARNING : small    HOMO - LUMO gap : 0.007610
    6     dE    -4.263410e-07     4.200033e-03    -8.5269e-07      0.000 (TRAH MIcro)
    6     dE    -1.515480e-06     2.216902e-03    -3.0309e-06      0.002 (TRAH MIcro)
    6     dE    -1.604089e-06     1.855901e-03    -3.2082e-06      0.002 (TRAH MIcro)
    6     dE    -1.734158e-06     1.022171e-03    -3.4683e-06      0.002 (TRAH MIcro)
    6     dE    -1.786104e-06     7.747318e-04    -3.5722e-06      0.002 (TRAH MIcro)
    6     dE    -1.803221e-06     2.722582e-04    -3.6064e-06      0.002 (TRAH MIcro)
    7       -475.544690027961     2.706875e-04                           (NR   MAcro)
WARNING : small    HOMO - LUMO gap : 0.007584
    7     dE    -4.088975e-09     1.788036e-04                           (NR   MIcro)
    7     dE    -4.360976e-09     1.644804e-04                           (NR   MIcro)
    7     dE    -5.881472e-09     9.039755e-05                           (NR   MIcro)
    7     dE    -6.909840e-09     8.746523e-05                           (NR   MIcro)
    7     dE    -7.585936e-09     5.589199e-05                           (NR   MIcro)
    7     dE    -7.769849e-09     2.722920e-05                           (NR   MIcro)
    7     dE    -7.800779e-09     9.498694e-06                           (NR   MIcro)
    7     dE    -7.804873e-09     3.121892e-06                           (NR   MIcro)
    7     dE    -7.805846e-09     1.626618e-06                           (NR   MIcro)
    7     dE    -7.806133e-09     1.086732e-06                           (NR   MIcro)
    7     dE    -7.806272e-09     5.735252e-07                           (NR   MIcro)
    8       -475.544690036393     7.240851e-07                           (NR   MAcro)
WARNING : small    HOMO - LUMO gap : 0.007584

               *****************************************************
               *                     SUCCESS                       *
               *           SCF CONVERGED AFTER  87 CYCLES          *
               *****************************************************

Old exchange energy                            =    -12.209093349 Eh
New exchange energy                            =    -12.209115367 Eh
Exchange energy change after final integration =     -0.000022018 Eh
Total energy after final integration           =   -475.544712055 Eh
Final COS-X integration done in                =    27.125 sec

----------------
TOTAL SCF ENERGY
----------------

Total Energy       :         -475.54471205 Eh          -12940.22948 eV

Components:
Nuclear Repulsion  :          366.89102654 Eh            9983.61239 eV
Electronic Energy  :         -842.43573859 Eh          -22923.84187 eV
One Electron Energy:        -1360.25953242 Eh          -37014.54366 eV
Two Electron Energy:          517.82379383 Eh           14090.70179 eV
Max COSX asymmetry :            0.00000423 Eh               0.00012 eV

Virial components:
Potential Energy   :         -946.53820296 Eh          -25756.61394 eV
Kinetic Energy     :          470.99349091 Eh           12816.38446 eV
Virial Ratio       :            2.00966302


DFT components:
N(Alpha)           :       35.999969415070 electrons
N(Beta)            :       35.999969415070 electrons
N(Total)           :       71.999938830139 electrons
E(X)               :      -48.808725349714 Eh       
E(C)               :       -2.861652491045 Eh       
E(XC)              :      -51.670377840759 Eh       
DFET-embed. en.    :        0.000000000000 Eh       

---------------
SCF CONVERGENCE
---------------

  Last Energy change         ...   -8.4315e-09  Tolerance :   1.0000e-08
  Last Orbital Gradient      ...    7.2409e-07  Tolerance :   1.0000e-05
  Last Orbital Rotation      ...    2.3135e-04

             **** THE GBW FILE WAS UPDATED (educt_optfreq_2.gbw) ****
             **** DENSITY educt_optfreq_2.scfp WAS UPDATED ****
             **** ENERGY FILE WAS UPDATED (educt_optfreq_2.en.tmp) ****
             **** THE GBW FILE WAS UPDATED (educt_optfreq_2.gbw) ****
             **** DENSITY educt_optfreq_2.scfp WAS UPDATED ****
----------------
ORBITAL ENERGIES
----------------

  NO   OCC          E(Eh)            E(eV) 
   0   2.0000     -19.456176      -529.4295 
   1   2.0000     -19.365309      -526.9568 
   2   2.0000     -14.711712      -400.3260 
   3   2.0000     -10.381453      -282.4937 
   4   2.0000     -10.370482      -282.1952 
   5   2.0000     -10.352526      -281.7066 
   6   2.0000     -10.351987      -281.6919 
   7   2.0000     -10.349187      -281.6157 
   8   2.0000     -10.348460      -281.5959 
   9   2.0000     -10.327480      -281.0250 
  10   2.0000      -1.348382       -36.6914 
  11   2.0000      -1.049328       -28.5537 
  12   2.0000      -1.016060       -27.6484 
  13   2.0000      -0.926618       -25.2145 
  14   2.0000      -0.901102       -24.5202 
  15   2.0000      -0.839090       -22.8328 
  16   2.0000      -0.832225       -22.6460 
  17   2.0000      -0.759980       -20.6801 
  18   2.0000      -0.737499       -20.0684 
  19   2.0000      -0.666807       -18.1448 
  20   2.0000      -0.664889       -18.0926 
  21   2.0000      -0.651111       -17.7176 
  22   2.0000      -0.649172       -17.6649 
  23   2.0000      -0.624658       -16.9978 
  24   2.0000      -0.603016       -16.4089 
  25   2.0000      -0.580045       -15.7838 
  26   2.0000      -0.567580       -15.4446 
  27   2.0000      -0.567282       -15.4365 
  28   2.0000      -0.531198       -14.4546 
  29   2.0000      -0.510921       -13.9029 
  30   2.0000      -0.505113       -13.7448 
  31   2.0000      -0.496576       -13.5125 
  32   2.0000      -0.455089       -12.3836 
  33   2.0000      -0.454150       -12.3580 
  34   2.0000      -0.416642       -11.3374 
  35   2.0000      -0.391122       -10.6430 
  36   0.0000      -0.383538       -10.4366 
  37   0.0000      -0.300024        -8.1641 
  38   0.0000      -0.231532        -6.3003 
  39   0.0000      -0.172237        -4.6868 
  40   0.0000      -0.160509        -4.3677 
  41   0.0000      -0.064401        -1.7524 
  42   0.0000      -0.039798        -1.0830 
  43   0.0000      -0.030025        -0.8170 
  44   0.0000      -0.021995        -0.5985 
  45   0.0000      -0.005529        -0.1505 
  46   0.0000       0.009595         0.2611 
  47   0.0000       0.025462         0.6929 
  48   0.0000       0.036345         0.9890 
  49   0.0000       0.040086         1.0908 
  50   0.0000       0.085314         2.3215 
  51   0.0000       0.107517         2.9257 
  52   0.0000       0.138063         3.7569 
  53   0.0000       0.147606         4.0166 
  54   0.0000       0.150046         4.0830 
  55   0.0000       0.175864         4.7855 
  56   0.0000       0.207095         5.6354 
  57   0.0000       0.246572         6.7096 
  58   0.0000       0.268469         7.3054 
  59   0.0000       0.272372         7.4116 
  60   0.0000       0.289880         7.8880 
  61   0.0000       0.298038         8.1100 
  62   0.0000       0.308303         8.3893 
  63   0.0000       0.330665         8.9979 
  64   0.0000       0.340823         9.2743 
  65   0.0000       0.350281         9.5316 
  66   0.0000       0.374039        10.1781 
  67   0.0000       0.389643        10.6027 
  68   0.0000       0.391371        10.6498 
  69   0.0000       0.424485        11.5508 
  70   0.0000       0.453011        12.3271 
  71   0.0000       0.461482        12.5576 
  72   0.0000       0.485545        13.2124 
  73   0.0000       0.493160        13.4196 
  74   0.0000       0.499305        13.5868 
  75   0.0000       0.510732        13.8977 
  76   0.0000       0.524306        14.2671 
  77   0.0000       0.524442        14.2708 
  78   0.0000       0.531979        14.4759 
  79   0.0000       0.535103        14.5609 
  80   0.0000       0.539185        14.6720 
  81   0.0000       0.550692        14.9851 
  82   0.0000       0.559428        15.2228 
  83   0.0000       0.580551        15.7976 
  84   0.0000       0.585210        15.9244 
  85   0.0000       0.592600        16.1255 
  86   0.0000       0.601094        16.3566 
  87   0.0000       0.609208        16.5774 
  88   0.0000       0.639505        17.4018 
  89   0.0000       0.666361        18.1326 
  90   0.0000       0.695653        18.9297 
  91   0.0000       0.698750        19.0140 
  92   0.0000       0.745646        20.2901 
  93   0.0000       0.750290        20.4164 
  94   0.0000       0.765458        20.8292 
  95   0.0000       0.819383        22.2966 
  96   0.0000       0.845819        23.0159 
  97   0.0000       0.856522        23.3072 
  98   0.0000       0.888830        24.1863 
  99   0.0000       0.902847        24.5677 
 100   0.0000       0.938965        25.5505 
 101   0.0000       0.976371        26.5684 
 102   0.0000       1.048014        28.5179 
 103   0.0000       1.056244        28.7419 
 104   0.0000       1.083432        29.4817 
 105   0.0000       1.094234        29.7756 
 106   0.0000       1.123987        30.5852 
 107   0.0000       1.129259        30.7287 
 108   0.0000       1.131416        30.7874 
 109   0.0000       1.135930        30.9102 
 110   0.0000       1.150125        31.2965 
 111   0.0000       1.324628        36.0450 
 112   0.0000       1.365012        37.1439 
 113   0.0000       1.377311        37.4785 
 114   0.0000       1.405841        38.2549 
 115   0.0000       1.495978        40.7076 
 116   0.0000       1.530550        41.6484 
 117   0.0000       1.535809        41.7915 
 118   0.0000       1.570524        42.7361 
 119   0.0000       1.576721        42.9048 
 120   0.0000       1.595152        43.4063 
 121   0.0000       1.597311        43.4651 
 122   0.0000       1.615646        43.9640 
 123   0.0000       1.622551        44.1519 
 124   0.0000       1.633198        44.4416 
 125   0.0000       1.660833        45.1936 
 126   0.0000       1.669582        45.4316 
 127   0.0000       1.679993        45.7149 
 128   0.0000       1.690899        46.0117 
 129   0.0000       1.720627        46.8206 
 130   0.0000       1.729926        47.0737 
 131   0.0000       1.766840        48.0782 
 132   0.0000       1.797271        48.9062 
 133   0.0000       1.831916        49.8490 
 134   0.0000       1.837470        50.0001 
 135   0.0000       1.838901        50.0390 
 136   0.0000       1.854506        50.4637 
 137   0.0000       1.881200        51.1901 
 138   0.0000       1.899936        51.6999 
 139   0.0000       1.903331        51.7923 
 140   0.0000       1.964096        53.4458 
 141   0.0000       1.980522        53.8928 
 142   0.0000       1.987213        54.0748 
 143   0.0000       2.020763        54.9878 
 144   0.0000       2.081942        56.6525 
 145   0.0000       2.128795        57.9274 
 146   0.0000       2.136870        58.1472 
 147   0.0000       2.152187        58.5640 
 148   0.0000       2.173139        59.1341 
 149   0.0000       2.202888        59.9436 
 150   0.0000       2.304214        62.7009 
 151   0.0000       2.310268        62.8656 
 152   0.0000       2.323924        63.2372 
 153   0.0000       2.339980        63.6741 
 154   0.0000       2.395173        65.1760 
 155   0.0000       2.397653        65.2434 
 156   0.0000       2.439463        66.3812 
 157   0.0000       2.444041        66.5057 
 158   0.0000       2.457166        66.8629 
 159   0.0000       2.475321        67.3569 
 160   0.0000       2.477934        67.4280 
 161   0.0000       2.487599        67.6910 
 162   0.0000       2.508305        68.2545 
 163   0.0000       2.525798        68.7304 
 164   0.0000       2.582124        70.2632 
 165   0.0000       2.584731        70.3341 
 166   0.0000       2.598843        70.7181 
 167   0.0000       2.693969        73.3066 
 168   0.0000       2.713194        73.8298 
 169   0.0000       2.721197        74.0475 
 170   0.0000       2.738498        74.5183 
 171   0.0000       2.794968        76.0549 
 172   0.0000       2.822092        76.7930 
 173   0.0000       2.907186        79.1086 
 174   0.0000       2.913195        79.2721 
 175   0.0000       2.985693        81.2448 
 176   0.0000       3.043599        82.8205 
 177   0.0000       3.100099        84.3580 
 178   0.0000       3.386215        92.1436 
 179   0.0000       3.463319        94.2417 

                    ********************************
                    * MULLIKEN POPULATION ANALYSIS *
                    ********************************

-----------------------
MULLIKEN ATOMIC CHARGES
-----------------------
   0 C :   -0.035327
   1 C :    0.037112
   2 C :    0.053389
   3 C :    0.082267
   4 C :    0.047454
   5 C :    0.042993
   6 C :    0.076068
   7 H :    0.081908
   8 H :    0.081266
   9 H :    0.051704
  10 H :    0.027185
  11 H :    0.038119
  12 H :    0.050926
  13 H :    0.042296
  14 H :    0.029451
  15 N :    0.317028
  16 O :    0.043133
  17 O :   -0.066974
Sum of atomic charges:    1.0000000

--------------------------------
MULLIKEN REDUCED ORBITAL CHARGES
--------------------------------
  0 C s       :     3.120043  s :     3.120043
      pz      :     1.014683  p :     2.870270
      px      :     0.891660
      py      :     0.963928
      dz2     :     0.011554  d :     0.045014
      dxz     :     0.008914
      dyz     :     0.010918
      dx2y2   :     0.006697
      dxy     :     0.006931
  1 C s       :     3.210654  s :     3.210654
      pz      :     0.936149  p :     2.718506
      px      :     0.905820
      py      :     0.876537
      dz2     :     0.010037  d :     0.033729
      dxz     :     0.007109
      dyz     :     0.008304
      dx2y2   :     0.003412
      dxy     :     0.004867
  2 C s       :     3.174014  s :     3.174014
      pz      :     0.897879  p :     2.737983
      px      :     0.908930
      py      :     0.931174
      dz2     :     0.008753  d :     0.034613
      dxz     :     0.006688
      dyz     :     0.008399
      dx2y2   :     0.004989
      dxy     :     0.005785
  3 C s       :     3.193204  s :     3.193204
      pz      :     0.918034  p :     2.688963
      px      :     0.876186
      py      :     0.894743
      dz2     :     0.008363  d :     0.035566
      dxz     :     0.006616
      dyz     :     0.009700
      dx2y2   :     0.005693
      dxy     :     0.005195
  4 C s       :     3.169740  s :     3.169740
      pz      :     0.943035  p :     2.748281
      px      :     0.908086
      py      :     0.897160
      dz2     :     0.010170  d :     0.034525
      dxz     :     0.007213
      dyz     :     0.008685
      dx2y2   :     0.003571
      dxy     :     0.004886
  5 C s       :     3.220538  s :     3.220538
      pz      :     0.866507  p :     2.702745
      px      :     0.908321
      py      :     0.927916
      dz2     :     0.008854  d :     0.033724
      dxz     :     0.006472
      dyz     :     0.007970
      dx2y2   :     0.004645
      dxy     :     0.005784
  6 C s       :     2.949740  s :     2.949740
      pz      :     0.955201  p :     2.947556
      px      :     1.015218
      py      :     0.977138
      dz2     :     0.005021  d :     0.026635
      dxz     :     0.003757
      dyz     :     0.008038
      dx2y2   :     0.003240
      dxy     :     0.006580
  7 H s       :     0.893233  s :     0.893233
      pz      :     0.005857  p :     0.024858
      px      :     0.012203
      py      :     0.006799
  8 H s       :     0.893966  s :     0.893966
      pz      :     0.010853  p :     0.024768
      px      :     0.006778
      py      :     0.007136
  9 H s       :     0.924673  s :     0.924673
      pz      :     0.004343  p :     0.023623
      px      :     0.008823
      py      :     0.010457
 10 H s       :     0.949542  s :     0.949542
      pz      :     0.003311  p :     0.023273
      px      :     0.008609
      py      :     0.011353
 11 H s       :     0.938604  s :     0.938604
      pz      :     0.013073  p :     0.023277
      px      :     0.006240
      py      :     0.003963
 12 H s       :     0.925994  s :     0.925994
      pz      :     0.011418  p :     0.023080
      px      :     0.003827
      py      :     0.007835
 13 H s       :     0.934402  s :     0.934402
      pz      :     0.003307  p :     0.023302
      px      :     0.008505
      py      :     0.011489
 14 H s       :     0.947254  s :     0.947254
      pz      :     0.012945  p :     0.023295
      px      :     0.006344
      py      :     0.004006
 15 N s       :     3.751353  s :     3.751353
      pz      :     0.914887  p :     2.882986
      px      :     1.054232
      py      :     0.913866
      dz2     :     0.014682  d :     0.048634
      dxz     :     0.014301
      dyz     :     0.012541
      dx2y2   :     0.003475
      dxy     :     0.003634
 16 O s       :     3.891429  s :     3.891429
      pz      :     1.237770  p :     4.042203
      px      :     1.487982
      py      :     1.316451
      dz2     :     0.007879  d :     0.023234
      dxz     :     0.005522
      dyz     :     0.006727
      dx2y2   :     0.001589
      dxy     :     0.001517
 17 O s       :     3.979709  s :     3.979709
      pz      :     1.216791  p :     4.083747
      px      :     1.133832
      py      :     1.733123
      dz2     :     0.001332  d :     0.003518
      dxz     :     0.001362
      dyz     :     0.000537
      dx2y2   :     0.000152
      dxy     :     0.000136


                     *******************************
                     * LOEWDIN POPULATION ANALYSIS *
                     *******************************

----------------------
LOEWDIN ATOMIC CHARGES
----------------------
   0 C :    0.086859
   1 C :    0.017101
   2 C :    0.026928
   3 C :    0.101443
   4 C :    0.015266
   5 C :    0.034178
   6 C :   -0.024438
   7 H :    0.072138
   8 H :    0.071367
   9 H :    0.047034
  10 H :    0.049197
  11 H :    0.051837
  12 H :    0.054231
  13 H :    0.053524
  14 H :    0.050146
  15 N :    0.279705
  16 O :    0.095902
  17 O :   -0.082420

-------------------------------
LOEWDIN REDUCED ORBITAL CHARGES
-------------------------------
  0 C s       :     2.876844  s :     2.876844
      pz      :     1.052243  p :     2.929248
      px      :     0.899613
      py      :     0.977392
      dz2     :     0.028361  d :     0.107049
      dxz     :     0.020819
      dyz     :     0.026888
      dx2y2   :     0.014056
      dxy     :     0.016925
  1 C s       :     2.864124  s :     2.864124
      pz      :     1.042314  p :     3.029850
      px      :     0.974214
      py      :     1.013322
      dz2     :     0.028540  d :     0.088924
      dxz     :     0.018471
      dyz     :     0.023205
      dx2y2   :     0.006838
      dxy     :     0.011870
  2 C s       :     2.864329  s :     2.864329
      pz      :     1.051322  p :     3.019063
      px      :     0.961580
      py      :     1.006161
      dz2     :     0.023365  d :     0.089680
      dxz     :     0.016203
      dyz     :     0.022951
      dx2y2   :     0.011418
      dxy     :     0.015742
  3 C s       :     2.878697  s :     2.878697
      pz      :     1.047558  p :     2.931041
      px      :     0.906983
      py      :     0.976500
      dz2     :     0.021966  d :     0.088820
      dxz     :     0.016705
      dyz     :     0.024343
      dx2y2   :     0.012031
      dxy     :     0.013774
  4 C s       :     2.861962  s :     2.861962
      pz      :     1.049121  p :     3.032890
      px      :     0.971106
      py      :     1.012663
      dz2     :     0.028349  d :     0.089881
      dxz     :     0.018718
      dyz     :     0.023984
      dx2y2   :     0.007054
      dxy     :     0.011776
  5 C s       :     2.866676  s :     2.866676
      pz      :     1.051277  p :     3.010599
      px      :     0.958628
      py      :     1.000695
      dz2     :     0.023787  d :     0.088547
      dxz     :     0.015880
      dyz     :     0.022318
      dx2y2   :     0.010859
      dxy     :     0.015702
  6 C s       :     2.828936  s :     2.828936
      pz      :     1.021081  p :     3.125591
      px      :     1.062944
      py      :     1.041566
      dz2     :     0.013340  d :     0.069912
      dxz     :     0.009595
      dyz     :     0.022079
      dx2y2   :     0.007467
      dxy     :     0.017431
  7 H s       :     0.860926  s :     0.860926
      pz      :     0.015616  p :     0.066936
      px      :     0.034219
      py      :     0.017101
  8 H s       :     0.861789  s :     0.861789
      pz      :     0.030344  p :     0.066844
      px      :     0.016595
      py      :     0.019904
  9 H s       :     0.886297  s :     0.886297
      pz      :     0.012311  p :     0.066669
      px      :     0.024568
      py      :     0.029789
 10 H s       :     0.881339  s :     0.881339
      pz      :     0.010746  p :     0.069463
      px      :     0.025555
      py      :     0.033163
 11 H s       :     0.878883  s :     0.878883
      pz      :     0.037582  p :     0.069281
      px      :     0.018941
      py      :     0.012757
 12 H s       :     0.875948  s :     0.875948
      pz      :     0.033805  p :     0.069821
      px      :     0.012338
      py      :     0.023678
 13 H s       :     0.877285  s :     0.877285
      pz      :     0.010907  p :     0.069190
      px      :     0.025089
      py      :     0.033194
 14 H s       :     0.880278  s :     0.880278
      pz      :     0.037503  p :     0.069576
      px      :     0.019269
      py      :     0.012804
 15 N s       :     3.551501  s :     3.551501
      pz      :     1.056664  p :     3.078135
      px      :     1.076235
      py      :     0.945237
      dz2     :     0.029987  d :     0.090659
      dxz     :     0.025435
      dyz     :     0.024600
      dx2y2   :     0.004777
      dxy     :     0.005860
 16 O s       :     3.678121  s :     3.678121
      pz      :     1.354347  p :     4.185851
      px      :     1.496001
      py      :     1.335502
      dz2     :     0.014145  d :     0.040126
      dxz     :     0.009070
      dyz     :     0.012467
      dx2y2   :     0.002005
      dxy     :     0.002439
 17 O s       :     3.928501  s :     3.928501
      pz      :     1.257923  p :     4.148782
      px      :     1.154620
      py      :     1.736240
      dz2     :     0.001928  d :     0.005137
      dxz     :     0.002141
      dyz     :     0.000671
      dx2y2   :     0.000217
      dxy     :     0.000180


                      *****************************
                      * MAYER POPULATION ANALYSIS *
                      *****************************

  NA   - Mulliken gross atomic population
  ZA   - Total nuclear charge
  QA   - Mulliken gross atomic charge
  VA   - Mayer's total valence
  BVA  - Mayer's bonded valence
  FA   - Mayer's free valence

  ATOM       NA         ZA         QA         VA         BVA        FA
  0 C      6.0353     6.0000    -0.0353     3.9348     3.9348    -0.0000
  1 C      5.9629     6.0000     0.0371     3.8516     3.8516    -0.0000
  2 C      5.9466     6.0000     0.0534     3.8311     3.8311    -0.0000
  3 C      5.9177     6.0000     0.0823     3.7959     3.7959     0.0000
  4 C      5.9525     6.0000     0.0475     3.8395     3.8395    -0.0000
  5 C      5.9570     6.0000     0.0430     3.8410     3.8410    -0.0000
  6 C      5.9239     6.0000     0.0761     3.9077     3.9077    -0.0000
  7 H      0.9181     1.0000     0.0819     0.9908     0.9908    -0.0000
  8 H      0.9187     1.0000     0.0813     0.9909     0.9909    -0.0000
  9 H      0.9483     1.0000     0.0517     0.9991     0.9991    -0.0000
 10 H      0.9728     1.0000     0.0272     0.9916     0.9916    -0.0000
 11 H      0.9619     1.0000     0.0381     0.9822     0.9822    -0.0000
 12 H      0.9491     1.0000     0.0509     0.9804     0.9804    -0.0000
 13 H      0.9577     1.0000     0.0423     0.9822     0.9822     0.0000
 14 H      0.9705     1.0000     0.0295     0.9914     0.9914     0.0000
 15 N      6.6830     7.0000     0.3170     3.1917     3.1917    -0.0000
 16 O      7.9569     8.0000     0.0431     2.4629     2.4629    -0.0000
 17 O      8.0670     8.0000    -0.0670     1.8905     1.8905    -0.0000

  Mayer bond orders larger than 0.100000
B(  0-C ,  1-C ) :   1.2558 B(  0-C ,  5-C ) :   1.2067 B(  0-C ,  6-C ) :   1.1007 
B(  0-C , 17-O ) :   0.1671 B(  1-C ,  2-C ) :   1.4629 B(  1-C , 10-H ) :   0.9909 
B(  2-C ,  3-C ) :   1.2454 B(  2-C , 11-H ) :   0.9873 B(  3-C ,  4-C ) :   1.2700 
B(  3-C , 12-H ) :   0.9868 B(  3-C , 17-O ) :   0.1801 B(  4-C ,  5-C ) :   1.4724 
B(  4-C , 13-H ) :   0.9884 B(  5-C , 14-H ) :   0.9950 B(  6-C ,  7-H ) :   0.9189 
B(  6-C ,  8-H ) :   0.9200 B(  6-C ,  9-H ) :   0.9584 B( 15-N , 16-O ) :   2.0108 
B( 15-N , 17-O ) :   0.9904 B( 16-O , 17-O ) :   0.3143 

-------
TIMINGS
-------

Total SCF time: 0 days 0 hours 11 min 15 sec 

Total time                  ....     675.438 sec
Sum of individual times     ....     667.654 sec  ( 98.8%)

Fock matrix formation       ....     651.992 sec  ( 96.5%)
  Split-RI-J                ....      84.467 sec  ( 13.0% of F)
  Chain of spheres X        ....     478.059 sec  ( 73.3% of F)
  XC integration            ....      88.882 sec  ( 13.6% of F)
    Basis function eval.    ....      29.842 sec  ( 33.6% of XC)
    Density eval.           ....      23.417 sec  ( 26.3% of XC)
    XC-Functional eval.     ....       6.119 sec  (  6.9% of XC)
    XC-Potential eval.      ....      22.116 sec  ( 24.9% of XC)
Diagonalization             ....       0.410 sec  (  0.1%)
Density matrix formation    ....       0.058 sec  (  0.0%)
Population analysis         ....       0.149 sec  (  0.0%)
Initial guess               ....       1.887 sec  (  0.3%)
Orbital Transformation      ....       0.380 sec  (  0.1%)
Orbital Orthonormalization  ....       0.000 sec  (  0.0%)
DIIS solution               ....       0.686 sec  (  0.1%)
SOSCF solution              ....       0.000 sec  (  0.0%)
Grid generation             ....      12.089 sec  (  1.8%)

Maximum memory used throughout the entire SCF-calculation: 69.5 MB


-------------------------------------------------------------------------------
                          DFT DISPERSION CORRECTION                            
                                                                               
                                 DFTD4 V2.5                                    
-------------------------------------------------------------------------------
The B3LYP functional is recognized
Active option DFTDOPT                   ...         5   

Starting D4
-------------------------   ----------------
Dispersion correction           -0.021311031
-------------------------   ----------------


-------------------------   --------------------
FINAL SINGLE POINT ENERGY      -475.566023085279
-------------------------   --------------------

------------------------------------------------------------------------------
                         ORCA SCF GRADIENT CALCULATION
------------------------------------------------------------------------------

 ... reading COSX grid (gridx3)
Gradient of the Kohn-Sham DFT energy:
Kohn-Sham wavefunction type      ... RKS
Hartree-Fock exchange scaling    ...    0.200
Number of operators              ...    1
Number of atoms                  ...   18
Basis set dimensions             ...  180
Integral neglect threshold       ... 2.5e-11
Integral primitive cutoff        ... 2.5e-12
SHARK Integral package           ... ON

Nuc. rep. gradient       (SHARK) ... done (  0.0 sec)
HCore & Overlap gradient (SHARK) ... done (  0.7 sec)
RI-J gradient            (SHARK) ... done (  4.6 sec)
COSX-gradient                    ... done ( 36.1 sec)
Exchange-correlation gradient    ... done
Dispersion correction            ... Starting D4


------------------- 
Dispersion Gradient 
------------------- 
   1  :   -0.000051424    0.000178636    0.000237049
   2  :   -0.000250773    0.000230300   -0.000224667
   3  :   -0.000168604    0.000007277   -0.000471951
   4  :    0.000073946   -0.000264198   -0.000354584
   5  :    0.000281768   -0.000415331   -0.000069948
   6  :    0.000240977   -0.000227653    0.000217823
   7  :   -0.000095306    0.000366773    0.000498759
   8  :    0.000021424    0.000115363    0.000128048
   9  :   -0.000050566    0.000060992    0.000153133
[...]
      9       0.021954   0.126285   0.039241   0.000056   0.000046  -0.000035
     10      -0.061057  -0.112380  -0.092591  -0.000100  -0.000089   0.000014
     11      -0.070648   0.113420  -0.090755  -0.000056  -0.000075  -0.000021
     12       0.040214  -0.068594  -0.006428   0.000018   0.000163   0.000078
     13       0.013096   0.112639   0.129384   0.000060  -0.000158   0.000014
     14       0.142539   0.050555   0.263227   0.000181   0.000134   0.000010
     15      -0.057006   0.043610   0.101048   0.000091  -0.000178   0.000409
     16       0.074653  -0.102767  -0.231624  -0.000160   0.000398   0.000286
     17       0.001208  -0.099801  -0.217280  -0.000091   0.000524   0.000211
     18      -0.009955  -0.006821   0.006896   0.000006   0.005470  -0.070897
     19       0.038334   0.002993  -0.023937  -0.000007  -0.000452  -0.053249
     20       0.043818  -0.012510  -0.030933  -0.000013  -0.056144   0.010257
     21       0.016681   0.003665  -0.013346  -0.000010   0.469921   0.697414
     22      -0.097744   0.035465   0.015273  -0.000082   0.156148   0.218054
     23       0.081808  -0.059135  -0.013022  -0.000046   0.187108   0.311890
     24       0.084618  -0.058367  -0.006849   0.000043  -0.346212   0.244626
     25      -0.014950   0.011698   0.006445  -0.000021  -0.432918   0.321674
     26       0.058867  -0.036936  -0.014253  -0.000077   0.541323  -0.424275
     27      -0.046062   0.000903   0.016875  -0.000021  -0.189495  -0.087433
     28      -0.018007   0.034129  -0.010442  -0.000035   0.275741   0.097271
     29      -0.098393   0.113104   0.005453  -0.000095  -0.065478  -0.019239
     30      -0.052461  -0.105646   0.135562  -0.000011   0.002553   0.001153
     31      -0.137030  -0.005076  -0.025883  -0.000042  -0.003531  -0.001884
     32      -0.447049  -0.307326   0.329030  -0.000185  -0.000475  -0.000037
     33       0.179666  -0.185199   0.186473   0.000099  -0.000348   0.000459
     34      -0.350175   0.233780  -0.276849  -0.000158  -0.000259   0.000376
     35      -0.254767  -0.016951  -0.073149  -0.000231  -0.000957  -0.000388
     36      -0.019210  -0.437082  -0.003920  -0.000176   0.000294  -0.000423
     37      -0.031443   0.415413  -0.062630   0.000161  -0.000647  -0.000351
     38      -0.122378  -0.335061  -0.145703  -0.000345  -0.000979   0.000169
     39      -0.078077  -0.126492  -0.135661  -0.000066   0.000614   0.000192
     40      -0.103467   0.096133   0.038649  -0.000039  -0.001150  -0.000330
     41      -0.448129  -0.148260  -0.300148  -0.000147  -0.000516  -0.000092
     42       0.155643  -0.176712  -0.219320  -0.000038  -0.002111  -0.002633
     43      -0.311183   0.282843   0.327736   0.000078   0.000584  -0.000398
     44      -0.236723   0.111547   0.093561   0.000052  -0.005402  -0.002686
     45      -0.003226  -0.000338   0.023621  -0.052043   0.000578  -0.000015
     46      -0.001465  -0.000162   0.010556   0.235001   0.000260  -0.000007
     47       0.000159  -0.000013  -0.001635   0.807518  -0.000034   0.000001
     48       0.001128   0.000125  -0.008825  -0.063528  -0.000235   0.000005
     49       0.002011   0.000213  -0.011695  -0.140849  -0.000203   0.000005
     50       0.004612   0.000482  -0.023527  -0.345482  -0.000289   0.000007
     51       0.001699   0.000174  -0.011858   0.109106  -0.000271   0.000007
     52      -0.000730  -0.000069   0.002454  -0.064896  -0.000026   0.000001
     53      -0.004745  -0.000463   0.024953  -0.361431   0.000317  -0.000008
                 48         49         50         51         52         53    
      0      -0.000131  -0.000907  -0.001538   0.000025  -0.001308  -0.000141
      1      -0.000454   0.001613   0.001257   0.000731   0.001105   0.000684
      2      -0.001518   0.000879  -0.001608   0.001617  -0.001296   0.001041
      3       0.001713  -0.013439   0.035792  -0.029511   0.020130  -0.012321
      4      -0.002505   0.016813  -0.045636   0.038088  -0.027113   0.016758
      5      -0.000078  -0.001580   0.002350  -0.000933  -0.001820   0.001477
      6      -0.000128   0.012005  -0.020532  -0.003054   0.026216  -0.021976
      7       0.000126  -0.005719   0.010619  -0.000798  -0.011548   0.011109
      8      -0.000071   0.021555  -0.035050  -0.010382   0.049133  -0.038083
      9      -0.000092   0.004174  -0.002072  -0.008587  -0.003051   0.007098
     10       0.000115  -0.016454   0.010503   0.033815   0.003614  -0.029093
     11      -0.000012  -0.024125   0.017089   0.049539  -0.000776  -0.043438
     12      -0.000001  -0.023072  -0.005520   0.013792   0.033864   0.032215
     13       0.000021   0.029009   0.006150  -0.019277  -0.044195  -0.040980
     14       0.000067  -0.002259  -0.002253  -0.002870  -0.000198   0.002126
     15       0.000452   0.030407   0.019997   0.014889   0.009983   0.008021
     16      -0.000158  -0.015098  -0.009423  -0.006745  -0.003223  -0.002472
     17       0.000450   0.053206   0.036090   0.027459   0.021230   0.017319
     18      -0.057555   0.000055   0.001585  -0.000606   0.000660  -0.000223
     19       0.064687   0.000346  -0.001769   0.000975  -0.000736   0.000350
     20      -0.031764   0.000191   0.000846  -0.000182   0.000357  -0.000185
     21       0.253984  -0.003382  -0.006929   0.000160  -0.002509   0.000676
     22       0.092833  -0.002240  -0.002620  -0.001030  -0.000863  -0.000277
     23       0.104433  -0.002336  -0.002984  -0.000912  -0.000900  -0.000185
     24      -0.097253   0.001185   0.002750   0.000100   0.001031  -0.000370
     25      -0.099587   0.000124   0.002511  -0.001013   0.000946  -0.000986
     26       0.130580  -0.001629  -0.003461  -0.000453  -0.001075   0.000484
     27       0.526186   0.003007  -0.014396   0.007998  -0.005457   0.002959
     28      -0.753198  -0.005086   0.020864  -0.012294   0.007858  -0.004615
     29       0.160505  -0.000569  -0.003623   0.000728  -0.001452   0.000100
     30      -0.018722   0.152815  -0.411003   0.333127  -0.225608   0.134581
     31       0.025473  -0.196354   0.528597  -0.428854   0.291351  -0.174034
     32       0.001423   0.006954  -0.017422   0.013299  -0.006987   0.003674
     33       0.001979  -0.142136   0.235558   0.052133  -0.301131   0.235804
     34      -0.000805   0.068349  -0.114069  -0.022907   0.144091  -0.114275
     35       0.003515  -0.253898   0.418988   0.097881  -0.539530   0.419315
     36       0.000373  -0.047947   0.031708   0.096491   0.005700  -0.079582
     37      -0.001043   0.192112  -0.129711  -0.386471  -0.013742   0.319959
     38      -0.001280   0.283975  -0.193610  -0.571143  -0.013847   0.473669
     39       0.000920   0.272308   0.062375  -0.165223  -0.382501  -0.350789
     40      -0.001287  -0.349312  -0.079313   0.213703   0.491919   0.450009
     41       0.000093   0.011678   0.004242  -0.003198  -0.013532  -0.014858
     42      -0.003250  -0.345760  -0.230301  -0.169244  -0.120153  -0.094256
     43       0.000833   0.167171   0.110961   0.081352   0.056674   0.044274
     44      -0.006923  -0.614532  -0.410221  -0.301778  -0.216619  -0.170303
     45       0.000309   0.000086  -0.000012   0.000133  -0.000036   0.000243
     46       0.000139   0.000039  -0.000006   0.000059  -0.000016   0.000110
     47      -0.000018  -0.000005   0.000001  -0.000008   0.000002  -0.000012
     48      -0.000126  -0.000035   0.000006  -0.000054   0.000014  -0.000099
     49      -0.000107  -0.000030   0.000004  -0.000046   0.000012  -0.000085
     50      -0.000151  -0.000042   0.000006  -0.000064   0.000018  -0.000119
     51      -0.000145  -0.000040   0.000006  -0.000062   0.000017  -0.000114
     52      -0.000014  -0.000004   0.000000  -0.000006   0.000002  -0.000012
     53       0.000167   0.000046  -0.000007   0.000071  -0.000019   0.000129


-----------
IR SPECTRUM
-----------

 Mode   freq       eps      Int      T**2         TX        TY        TZ
       cm**-1   L/(mol*cm) km/mol    a.u.
----------------------------------------------------------------------------
  9:      5.72   0.000086    0.43  0.004675  ( 0.029920  0.042373 -0.044549)
 10:      5.90   0.000171    0.87  0.009051  (-0.031019  0.004210 -0.089838)
 11:     10.79   0.000293    1.48  0.008476  ( 0.085409  0.034352 -0.000997)
 12:     19.73   0.000061    0.31  0.000963  ( 0.013034 -0.025690  0.011543)
 13:    189.23   0.000260    1.32  0.000429  (-0.014777 -0.013183  0.006080)
 14:    347.33   0.001462    7.39  0.001314  (-0.009857  0.003631 -0.034692)
 15:    389.99   0.000001    0.00  0.000001  (-0.000537  0.000553 -0.000278)
 16:    454.50   0.000868    4.39  0.000596  (-0.011975 -0.010148  0.018705)
 17:    518.31   0.226656  1145.42  0.136466  ( 0.059426  0.012855  0.364375)
 18:    562.32   0.846895  4279.86  0.469993  (-0.107398 -0.019234 -0.676822)
 19:    567.61   0.699811  3536.56  0.384747  (-0.090197 -0.025344 -0.613163)
 20:    650.94   0.004330   21.88  0.002076  (-0.035218 -0.026101  0.012418)
 21:    754.47   0.006591   33.31  0.002726  (-0.039983 -0.031727  0.010996)
 22:    795.41   0.003368   17.02  0.001321  ( 0.011013  0.001577  0.034604)
 23:    833.30   0.000031    0.16  0.000012  ( 0.002848  0.001853 -0.000315)
 24:    933.17   0.000563    2.84  0.000188  ( 0.000712  0.001378  0.013632)
 25:    979.97   0.025999  131.39  0.008279  ( 0.014068  0.009929  0.089347)
 26:   1008.22   0.010698   54.06  0.003311  (-0.009871  0.000991 -0.056682)
 27:   1013.41   0.000170    0.86  0.000052  (-0.005146 -0.002538  0.004421)
 28:   1020.02   0.002612   13.20  0.000799  ( 0.016731  0.009533 -0.020695)
 29:   1028.88   0.004677   23.64  0.001419  (-0.008504  0.001791 -0.036647)
 30:   1033.85   0.000254    1.28  0.000077  ( 0.002611  0.001420 -0.008233)
 31:   1101.74   0.004084   20.64  0.001157  ( 0.017314 -0.012833  0.026312)
 32:   1157.11   0.002593   13.10  0.000699  ( 0.003187  0.004420  0.025877)
 33:   1195.03   0.071828  362.99  0.018757  ( 0.023551  0.009303  0.134594)
 34:   1247.81   0.077232  390.30  0.019315  (-0.020848 -0.013691 -0.136722)
 35:   1314.58   0.030108  152.16  0.007147  ( 0.012038  0.011081  0.082943)
 36:   1363.38   0.614827  3107.08  0.140727  ( 0.064660  0.021743  0.368881)
 37:   1372.78   1.215485  6142.56  0.276307  (-0.097643 -0.020935 -0.516076)
 38:   1387.59   0.002350   11.87  0.000528  (-0.005925  0.008615  0.020472)
 39:   1421.95   0.000958    4.84  0.000210  ( 0.005344  0.012115 -0.005900)
 40:   1428.66   0.002011   10.16  0.000439  (-0.020891 -0.001653 -0.000260)
 41:   1457.64   0.004659   23.55  0.000998  (-0.009793  0.008033 -0.028933)
 42:   1498.08   0.022579  114.11  0.004703  ( 0.004603 -0.032028 -0.060469)
 43:   1516.04   0.002362   11.94  0.000486  (-0.013541  0.012335 -0.012277)
 44:   1670.27   0.165145  834.57  0.030855  ( 0.028296  0.014510  0.172752)
 45:   2141.33   0.063099  318.87  0.009196  (-0.006563  0.027764  0.091552)
 46:   3006.14   0.031623  159.81  0.003283  ( 0.007072  0.008032  0.056287)
 47:   3065.71   0.000088    0.44  0.000009  (-0.000450 -0.001648 -0.002454)
 48:   3145.32   0.012096   61.13  0.001200  (-0.000407  0.011478  0.032683)
 49:   3188.78   0.001238    6.26  0.000121  ( 0.001326  0.001882  0.010763)
 50:   3191.98   0.000073    0.37  0.000007  ( 0.000671 -0.001578 -0.002041)
 51:   3199.22   0.002454   12.40  0.000239  ( 0.001171  0.003493  0.015025)
 52:   3207.32   0.000110    0.55  0.000011  ( 0.001963 -0.002438 -0.000926)
 53:   3213.55   0.003169   16.01  0.000308  ( 0.003874 -0.000706  0.017094)

* The epsilon (eps) is given for a Dirac delta lineshape.
** The dipole moment derivative (T) already includes vibrational overlap.

The first frequency considered to be a vibration is 9
The total number of vibrations considered is 45


--------------------------
THERMOCHEMISTRY AT 298.15K
--------------------------

Temperature         ... 298.15 K
Pressure            ... 1.00 atm
Total Mass          ... 138.15 AMU

Throughout the following assumptions are being made:
  (1) The electronic state is orbitally nondegenerate
  (2) There are no thermally accessible electronically excited states
  (3) Hindered rotations indicated by low frequency modes are not
      treated as such but are treated as vibrations and this may
      cause some error
  (4) All equations used are the standard statistical mechanics
      equations for an ideal gas
  (5) All vibrations are strictly harmonic

freq.       5.72  E(vib)   ...       0.58 
freq.       5.90  E(vib)   ...       0.58 
freq.      10.79  E(vib)   ...       0.58 
freq.      19.73  E(vib)   ...       0.56 
freq.     189.23  E(vib)   ...       0.36 
freq.     347.33  E(vib)   ...       0.23 
freq.     389.99  E(vib)   ...       0.20 
freq.     454.50  E(vib)   ...       0.16 
freq.     518.31  E(vib)   ...       0.13 
freq.     562.32  E(vib)   ...       0.11 
freq.     567.61  E(vib)   ...       0.11 
freq.     650.94  E(vib)   ...       0.08 
freq.     754.47  E(vib)   ...       0.06 
freq.     795.41  E(vib)   ...       0.05 
freq.     833.30  E(vib)   ...       0.04 
freq.     933.17  E(vib)   ...       0.03 
freq.     979.97  E(vib)   ...       0.02 
freq.    1008.22  E(vib)   ...       0.02 
freq.    1013.41  E(vib)   ...       0.02 
freq.    1020.02  E(vib)   ...       0.02 
freq.    1028.88  E(vib)   ...       0.02 
freq.    1033.85  E(vib)   ...       0.02 
freq.    1101.74  E(vib)   ...       0.02 
freq.    1157.11  E(vib)   ...       0.01 
freq.    1195.03  E(vib)   ...       0.01 
freq.    1247.81  E(vib)   ...       0.01 
freq.    1314.58  E(vib)   ...       0.01 
freq.    1363.38  E(vib)   ...       0.01 
freq.    1372.78  E(vib)   ...       0.01 
freq.    1387.59  E(vib)   ...       0.00 
freq.    1421.95  E(vib)   ...       0.00 
freq.    1428.66  E(vib)   ...       0.00 
freq.    1457.64  E(vib)   ...       0.00 
freq.    1498.08  E(vib)   ...       0.00 
freq.    1516.04  E(vib)   ...       0.00 
freq.    1670.27  E(vib)   ...       0.00 
freq.    2141.33  E(vib)   ...       0.00 
freq.    3006.14  E(vib)   ...       0.00 
freq.    3065.71  E(vib)   ...       0.00 
freq.    3145.32  E(vib)   ...       0.00 
freq.    3188.78  E(vib)   ...       0.00 
freq.    3191.98  E(vib)   ...       0.00 
freq.    3199.22  E(vib)   ...       0.00 
freq.    3207.32  E(vib)   ...       0.00 
freq.    3213.55  E(vib)   ...       0.00 

------------
INNER ENERGY
------------

The inner energy is: U= E(el) + E(ZPE) + E(vib) + E(rot) + E(trans)
    E(el)   - is the total energy from the electronic structure calculation
              = E(kin-el) + E(nuc-el) + E(el-el) + E(nuc-nuc)
    E(ZPE)  - the the zero temperature vibrational energy from the frequency calculation
    E(vib)  - the the finite temperature correction to E(ZPE) due to population
              of excited vibrational states
    E(rot)  - is the rotational thermal energy
    E(trans)- is the translational thermal energy

Summary of contributions to the inner energy U:
Electronic energy                ...   -475.72143201 Eh
Zero point energy                ...      0.13581320 Eh      85.22 kcal/mol
Thermal vibrational correction   ...      0.00655044 Eh       4.11 kcal/mol
Thermal rotational correction    ...      0.00141627 Eh       0.89 kcal/mol
Thermal translational correction ...      0.00141627 Eh       0.89 kcal/mol
-----------------------------------------------------------------------
Total thermal energy                   -475.57623583 Eh


Summary of corrections to the electronic energy:
(perhaps to be used in another calculation)
Total thermal correction                  0.00938299 Eh       5.89 kcal/mol
Non-thermal (ZPE) correction              0.13581320 Eh      85.22 kcal/mol
-----------------------------------------------------------------------
Total correction                          0.14519618 Eh      91.11 kcal/mol


--------
ENTHALPY
--------

The enthalpy is H = U + kB*T
                kB is Boltzmann's constant
Total free energy                 ...   -475.57623583 Eh 
Thermal Enthalpy correction       ...      0.00094421 Eh       0.59 kcal/mol
-----------------------------------------------------------------------
Total Enthalpy                    ...   -475.57529162 Eh


Note: Only C1 symmetry has been detected, increase convergence thresholds 
      if your molecule has a higher symmetry. Symmetry factor of 1.0 is   
      used for the rotational entropy correction. 
 

Note: Rotational entropy computed according to Herzberg 
Infrared and Raman Spectra, Chapter V,1, Van Nostrand Reinhold, 1945 
Point Group:  C1, Symmetry Number:   1  
Rotational constants in cm-1:     0.124550     0.002591     0.002541 

Vibrational entropy computed according to the QRRHO of S. Grimme
Chem.Eur.J. 2012 18 9955


-------
ENTROPY
-------

The entropy contributions are T*S = T*(S(el)+S(vib)+S(rot)+S(trans))
     S(el)   - electronic entropy
     S(vib)  - vibrational entropy
     S(rot)  - rotational entropy
     S(trans)- translational entropy
The entropies will be listed as multiplied by the temperature to get
units of energy

Electronic entropy                ...      0.00000000 Eh      0.00 kcal/mol
Vibrational entropy               ...      0.01414220 Eh      8.87 kcal/mol
Rotational entropy                ...      0.01612665 Eh     10.12 kcal/mol
Translational entropy             ...      0.01932890 Eh     12.13 kcal/mol
-----------------------------------------------------------------------
Final entropy term                ...      0.04959775 Eh     31.12 kcal/mol

In case the symmetry of your molecule has not been determined correctly
or in case you have a reason to use a different symmetry number we print 
out the resulting rotational entropy values for sn=1,12 :
 --------------------------------------------------------
|  sn= 1 | S(rot)=       0.01612665 Eh     10.12 kcal/mol|
|  sn= 2 | S(rot)=       0.01547219 Eh      9.71 kcal/mol|
|  sn= 3 | S(rot)=       0.01508936 Eh      9.47 kcal/mol|
|  sn= 4 | S(rot)=       0.01481773 Eh      9.30 kcal/mol|
|  sn= 5 | S(rot)=       0.01460705 Eh      9.17 kcal/mol|
|  sn= 6 | S(rot)=       0.01443490 Eh      9.06 kcal/mol|
|  sn= 7 | S(rot)=       0.01428936 Eh      8.97 kcal/mol|
|  sn= 8 | S(rot)=       0.01416328 Eh      8.89 kcal/mol|
|  sn= 9 | S(rot)=       0.01405207 Eh      8.82 kcal/mol|
|  sn=10 | S(rot)=       0.01395259 Eh      8.76 kcal/mol|
|  sn=11 | S(rot)=       0.01386260 Eh      8.70 kcal/mol|
|  sn=12 | S(rot)=       0.01378045 Eh      8.65 kcal/mol|
 --------------------------------------------------------


-------------------
GIBBS FREE ENERGY
-------------------

The Gibbs free energy is G = H - T*S

Total enthalpy                    ...   -475.57529162 Eh 
Total entropy correction          ...     -0.04959775 Eh    -31.12 kcal/mol
-----------------------------------------------------------------------
Final Gibbs free energy         ...   -475.62488937 Eh

For completeness - the Gibbs free energy minus the electronic energy
G-E(el)                           ...      0.09654265 Eh     60.58 kcal/mol


Timings for individual modules:

Sum of individual times         ...    10091.153 sec (= 168.186 min)
GTO integral calculation        ...       24.390 sec (=   0.407 min)   0.2 %
SCF iterations                  ...     7537.374 sec (= 125.623 min)  74.7 %
SCF Gradient evaluation         ...     1626.337 sec (=  27.106 min)  16.1 %
Geometry relaxation             ...        7.610 sec (=   0.127 min)   0.1 %
Analytical frequency calculation...      895.442 sec (=  14.924 min)   8.9 %
                             ****ORCA TERMINATED NORMALLY****
TOTAL RUN TIME: 0 days 2 hours 48 minutes 35 seconds 938 msec
