
                                 *****************
                                 * O   R   C   A *
                                 *****************

                                            #,                                       
                                            ###                                      
                                            ####                                     
                                            #####                                    
                                            ######                                   
                                           ########,                                 
                                     ,,################,,,,,                         
                               ,,#################################,,                 
                          ,,##########################################,,             
                       ,#########################################, ''#####,          
                    ,#############################################,,   '####,        
                  ,##################################################,,,,####,       
                ,###########''''           ''''###############################       
              ,#####''   ,,,,##########,,,,          '''####'''          '####       
            ,##' ,,,,###########################,,,                        '##       
           ' ,,###''''                  '''############,,,                           
         ,,##''                                '''############,,,,        ,,,,,,###''
      ,#''                                            '''#######################'''  
     '                                                          ''''####''''         
             ,#######,   #######,   ,#######,      ##                                
            ,#'     '#,  ##    ##  ,#'     '#,    #''#        ######   ,####,        
            ##       ##  ##   ,#'  ##            #'  '#       #        #'  '#        
            ##       ##  #######   ##           ,######,      #####,   #    #        
            '#,     ,#'  ##    ##  '#,     ,#' ,#      #,         ##   #,  ,#        
             '#######'   ##     ##  '#######'  #'      '#     #####' # '####'        



                  #######################################################
                  #                        -***-                        #
                  #          Department of theory and spectroscopy      #
                  #    Directorship and core code : Frank Neese         #
                  #        Max Planck Institute fuer Kohlenforschung    #
                  #                Kaiser Wilhelm Platz 1               #
                  #                 D-45470 Muelheim/Ruhr               #
                  #                      Germany                        #
                  #                                                     #
                  #                  All rights reserved                #
                  #                        -***-                        #
                  #######################################################



                         Program Version 5.0.4 -  RELEASE  -

 With contributions from (in alphabetic order):
   Daniel Aravena         : Magnetic Suceptibility
   Michael Atanasov       : Ab Initio Ligand Field Theory (pilot matlab implementation)
   Alexander A. Auer      : GIAO ZORA, VPT2 properties, NMR spectrum
   Ute Becker             : Parallelization
   Giovanni Bistoni       : ED, misc. LED, open-shell LED, HFLD
   Martin Brehm           : Molecular dynamics
   Dmytro Bykov           : SCF Hessian
   Vijay G. Chilkuri      : MRCI spin determinant printing, contributions to CSF-ICE
   Dipayan Datta          : RHF DLPNO-CCSD density
   Achintya Kumar Dutta   : EOM-CC, STEOM-CC
   Dmitry Ganyushin       : Spin-Orbit,Spin-Spin,Magnetic field MRCI
   Miquel Garcia          : C-PCM and meta-GGA Hessian, CC/C-PCM, Gaussian charge scheme
   Yang Guo               : DLPNO-NEVPT2, F12-NEVPT2, CIM, IAO-localization
   Andreas Hansen         : Spin unrestricted coupled pair/coupled cluster methods
   Benjamin Helmich-Paris : MC-RPA, TRAH-SCF, COSX integrals
   Lee Huntington         : MR-EOM, pCC
   Robert Izsak           : Overlap fitted RIJCOSX, COSX-SCS-MP3, EOM
   Marcus Kettner         : VPT2
   Christian Kollmar      : KDIIS, OOCD, Brueckner-CCSD(T), CCSD density, CASPT2, CASPT2-K
   Simone Kossmann        : Meta GGA functionals, TD-DFT gradient, OOMP2, MP2 Hessian
   Martin Krupicka        : Initial AUTO-CI
   Lucas Lang             : DCDCAS
   Marvin Lechner         : AUTO-CI (C++ implementation), FIC-MRCC
   Dagmar Lenk            : GEPOL surface, SMD
   Dimitrios Liakos       : Extrapolation schemes; Compound Job, initial MDCI parallelization
   Dimitrios Manganas     : Further ROCIS development; embedding schemes
   Dimitrios Pantazis     : SARC Basis sets
   Anastasios Papadopoulos: AUTO-CI, single reference methods and gradients
   Taras Petrenko         : DFT Hessian,TD-DFT gradient, ASA, ECA, R-Raman, ABS, FL, XAS/XES, NRVS
   Peter Pinski           : DLPNO-MP2, DLPNO-MP2 Gradient
   Christoph Reimann      : Effective Core Potentials
   Marius Retegan         : Local ZFS, SOC
   Christoph Riplinger    : Optimizer, TS searches, QM/MM, DLPNO-CCSD(T), (RO)-DLPNO pert. Triples
   Tobias Risthaus        : Range-separated hybrids, TD-DFT gradient, RPA, STAB
   Michael Roemelt        : Original ROCIS implementation
   Masaaki Saitow         : Open-shell DLPNO-CCSD energy and density
   Barbara Sandhoefer     : DKH picture change effects
   Avijit Sen             : IP-ROCIS
   Kantharuban Sivalingam : CASSCF convergence, NEVPT2, FIC-MRCI
   Bernardo de Souza      : ESD, SOC TD-DFT
   Georgi Stoychev        : AutoAux, RI-MP2 NMR, DLPNO-MP2 response
   Willem Van den Heuvel  : Paramagnetic NMR
   Boris Wezisla          : Elementary symmetry handling
   Frank Wennmohs         : Technical directorship


 We gratefully acknowledge several colleagues who have allowed us to
 interface, adapt or use parts of their codes:
   Stefan Grimme, W. Hujo, H. Kruse, P. Pracht,  : VdW corrections, initial TS optimization,
                  C. Bannwarth, S. Ehlert          DFT functionals, gCP, sTDA/sTD-DF
   Ed Valeev, F. Pavosevic, A. Kumar             : LibInt (2-el integral package), F12 methods
   Garnet Chan, S. Sharma, J. Yang, R. Olivares  : DMRG
   Ulf Ekstrom                                   : XCFun DFT Library
   Mihaly Kallay                                 : mrcc  (arbitrary order and MRCC methods)
   Jiri Pittner, Ondrej Demel                    : Mk-CCSD
   Frank Weinhold                                : gennbo (NPA and NBO analysis)
   Christopher J. Cramer and Donald G. Truhlar   : smd solvation model
   Lars Goerigk                                  : TD-DFT with DH, B97 family of functionals
   V. Asgeirsson, H. Jonsson                     : NEB implementation
   FAccTs GmbH                                   : IRC, NEB, NEB-TS, DLPNO-Multilevel, CI-OPT
                                                   MM, QMMM, 2- and 3-layer-ONIOM, Crystal-QMMM,
                                                   LR-CPCM, SF, NACMEs, symmetry and pop. for TD-DFT,
                                                   nearIR, NL-DFT gradient (VV10), updates on ESD,
                                                   ML-optimized integration grids
   S Lehtola, MJT Oliveira, MAL Marques          : LibXC Library
   Liviu Ungur et al                             : ANISO software


 Your calculation uses the libint2 library for the computation of 2-el integrals
 For citations please refer to: http://libint.valeyev.net

 Your ORCA version has been built with support for libXC version: 5.1.0
 For citations please refer to: https://tddft.org/programs/libxc/

 This ORCA versions uses:
   CBLAS   interface :  Fast vector & matrix operations
   LAPACKE interface :  Fast linear algebra routines
   Shared memory     :  Shared parallel matrices


Your calculation utilizes the atom-pairwise dispersion correction
based on tight binding partial charges (D4)
Cite in your paper:
E.Caldeweyher, C.Bannwarth, S.Grimme, J.Chem.Phys., (2017), 147, 034112.
E.Caldeweyher, S.Ehlert, A.Hansen, H.Neugebauer, S.Grimme, J.Chem.Phys., (2018), in progress.
   

================================================================================

----- Orbital basis set information -----
Your calculation utilizes the basis: def2-SVP
   F. Weigend and R. Ahlrichs, Phys. Chem. Chem. Phys. 7, 3297 (2005).

----- AuxJ basis set information -----
Your calculation utilizes the auxiliary basis: def2/J
   F. Weigend, Phys. Chem. Chem. Phys. 8, 1057 (2006).

================================================================================
                                        WARNINGS
                       Please study these warnings very carefully!
================================================================================


WARNING: Geometry Optimization
  ===> : Switching off AutoStart
         For restart on a previous wavefunction, please use MOREAD

INFO   : the flag for use of the SHARK integral package has been found!

================================================================================
                                       INPUT FILE
================================================================================
NAME = para_ts_optfreq_2.inp
|  1> !B3LYP DEF2-SVP OPT FREQ D4
|  2> 
|  3> * xyz 1 1
|  4>    C       -6.30101        0.43717       -0.14689
|  5>    C       -7.17526        1.06388       -1.09158
|  6>    C       -7.25752        0.60867       -2.37461
|  7>    C       -6.51626       -0.59644       -2.78936
|  8>    C       -5.56528       -1.16578       -1.81932
|  9>    C       -5.51428       -0.69084       -0.53993
| 10>    C       -6.28550        0.91010        1.25803
| 11>    H       -4.74775        1.10542        1.56526
| 12>    H       -7.08171       -0.57964        2.06359
| 13>    H       -7.47988        2.31099        1.38962
| 14>    H       -7.74199        1.94844       -0.78597
| 15>    H       -7.87944        1.10471       -3.12471
| 16>    H       -4.92304       -1.98420       -2.15681
| 17>    H       -4.82268       -1.13259        0.18081
| 18>    N       -5.89892       -0.45828       -4.24612
| 19>    O       -4.95361       -1.16543       -4.47564
| 20>    O       -6.47357        0.30682       -4.97448
| 21>    H       -7.28218       -1.38815       -2.97751
| 22> **                         ****END OF INPUT****
================================================================================

                       *****************************
                       * Geometry Optimization Run *
                       *****************************

Geometry optimization settings:
Update method            Update   .... BFGS
Choice of coordinates    CoordSys .... Z-matrix Internals
Initial Hessian          InHess   .... Almoef's Model

Convergence Tolerances:
Energy Change            TolE     ....  5.0000e-06 Eh
Max. Gradient            TolMAXG  ....  3.0000e-04 Eh/bohr
RMS Gradient             TolRMSG  ....  1.0000e-04 Eh/bohr
Max. Displacement        TolMAXD  ....  4.0000e-03 bohr
RMS Displacement         TolRMSD  ....  2.0000e-03 bohr
Strict Convergence                ....  False
------------------------------------------------------------------------------
                        ORCA OPTIMIZATION COORDINATE SETUP
------------------------------------------------------------------------------

The optimization will be done in new redundant internal coordinates
Making redundant internal coordinates   ...  (new redundants) done
Evaluating the initial hessian          ...  (Almloef) done
Evaluating the coordinates              ...  done
Calculating the B-matrix                .... done
Calculating the G-matrix                .... done
Diagonalizing the G-matrix              .... done
The first mode is                       ....   49
The number of degrees of freedom        ....   48

    -----------------------------------------------------------------
                    Redundant Internal Coordinates


    -----------------------------------------------------------------
         Definition                    Initial Value    Approx d2E/dq
    -----------------------------------------------------------------
      1. B(C   1,C   0)                  1.4316         0.536224   
      2. B(C   2,C   1)                  1.3639         0.687738   
      3. B(C   3,C   2)                  1.4744         0.458277   
      4. B(C   4,C   3)                  1.4729         0.460731   
      5. B(C   5,C   0)                  1.4303         0.538768   
      6. B(C   5,C   4)                  1.3657         0.683255   
      7. B(C   6,C   0)                  1.4825         0.444852   
      8. B(H   7,C   6)                  1.5803         0.059463   
      9. B(H   8,C   6)                  1.8714         0.020404   
     10. B(H   9,C   6)                  1.8456         0.022432   
     11. B(H  10,H   9)                  2.2211         0.001081   
     12. B(H  10,C   1)                  1.0941         0.354734   
     13. B(H  11,C   2)                  1.0934         0.355650   
     14. B(H  12,C   4)                  1.0937         0.355237   
     15. B(H  13,C   5)                  1.0922         0.357190   
     16. B(N  14,C   3)                  1.5882         0.270194   
     17. B(O  15,N  14)                  1.2026         0.997534   
     18. B(O  16,N  14)                  1.2025         0.997904   
     19. B(H  17,C   3)                  1.1175         0.325481   
     20. A(C   5,C   0,C   6)          120.4144         0.399074   
     21. A(C   1,C   0,C   5)          119.9870         0.412466   
     22. A(C   1,C   0,C   6)          119.4784         0.398742   
     23. A(C   0,C   1,C   2)          120.7629         0.430842   
     24. A(C   2,C   1,H  10)          120.0909         0.358259   
     25. A(C   0,C   1,H  10)          119.0735         0.343512   
     26. A(C   3,C   2,H  11)          117.6330         0.334766   
     27. A(C   1,C   2,H  11)          121.8878         0.358416   
     28. A(C   1,C   2,C   3)          120.4720         0.418902   
     29. A(C   4,C   3,H  17)          106.2331         0.330176   
     30. A(N  14,C   3,H  17)           99.9977         0.300976   
     31. A(C   2,C   3,H  17)          106.3707         0.329884   
     32. A(C   4,C   3,N  14)          112.7520         0.354146   
     33. A(C   2,C   3,N  14)          112.4793         0.353826   
     34. A(C   2,C   3,C   4)          117.0835         0.390306   
     35. A(C   5,C   4,H  12)          121.8297         0.357947   
     36. A(C   3,C   4,H  12)          117.7204         0.334999   
     37. A(C   3,C   4,C   5)          120.4420         0.418812   
     38. A(C   0,C   5,H  13)          119.0732         0.344183   
     39. A(C   0,C   5,C   4)          120.7412         0.430702   
     40. A(C   4,C   5,H  13)          120.0792         0.358281   
     41. A(C   0,C   6,H   8)           98.6000         0.216834   
     42. A(H   7,C   6,H   9)          121.4701         0.160632   
     43. A(C   0,C   6,H   9)          107.6343         0.219605   
     44. A(C   0,C   6,H   7)          103.5244         0.251849   
     45. A(H   8,C   6,H   9)          107.3498         0.145230   
     46. A(H   7,C   6,H   8)          115.3862         0.159112   
     47. A(C   6,H   9,H  10)           83.2600         0.112124   
     48. A(C   1,H  10,H   9)          110.1480         0.132197   
     49. A(O  15,N  14,O  16)          129.3551         0.502937   
     50. A(C   3,N  14,O  16)          115.1608         0.399602   
     51. A(C   3,N  14,O  15)          115.4318         0.399576   
     52. D(C   2,C   1,C   0,C   5)     -0.8275         0.019639   
     53. D(H  10,C   1,C   0,C   6)      6.2385         0.019639   
     54. D(C   2,C   1,C   0,C   6)   -176.8583         0.019639   
     55. D(H  10,C   1,C   0,C   5)   -177.7308         0.019639   
     56. D(C   3,C   2,C   1,H  10)   -178.9087         0.033215   
     57. D(H  11,C   2,C   1,C   0)   -176.7791         0.033215   
     58. D(H  11,C   2,C   1,H  10)      0.0927         0.033215   
     59. D(C   3,C   2,C   1,C   0)      4.2194         0.033215   
     60. D(H  17,C   3,C   2,H  11)    -68.2729         0.015484   
     61. D(N  14,C   3,C   2,H  11)     40.2316         0.015484   
     62. D(N  14,C   3,C   2,C   1)   -140.7253         0.015484   
     63. D(C   4,C   3,C   2,H  11)    173.2074         0.015484   
     64. D(C   4,C   3,C   2,C   1)     -7.7495         0.015484   
     65. D(H  17,C   3,C   2,C   1)    110.7701         0.015484   
     66. D(C   5,C   4,C   3,C   2)      8.2280         0.015650   
     67. D(H  12,C   4,C   3,H  17)     68.6334         0.015650   
     68. D(H  12,C   4,C   3,N  14)    -39.9194         0.015650   
     69. D(H  12,C   4,C   3,C   2)   -172.7730         0.015650   
     70. D(C   5,C   4,C   3,H  17)   -110.3656         0.015650   
     71. D(C   5,C   4,C   3,N  14)    141.0816         0.015650   
     72. D(H  13,C   5,C   4,H  12)     -0.3440         0.032749   
     73. D(C   0,C   5,C   4,H  12)    175.8714         0.032749   
     74. D(C   0,C   5,C   4,C   3)     -5.1716         0.032749   
     75. D(H  13,C   5,C   0,C   6)     -6.4383         0.019831   
     76. D(H  13,C   5,C   0,C   1)    177.5685         0.019831   
     77. D(H  13,C   5,C   4,C   3)    178.6130         0.032749   
     78. D(C   4,C   5,C   0,C   6)    177.3087         0.019831   
     79. D(C   4,C   5,C   0,C   1)      1.3155         0.019831   
     80. D(H   9,C   6,C   0,C   1)     -1.0437         0.014598   
     81. D(H   7,C   6,C   0,C   5)     53.1602         0.014598   
     82. D(H   7,C   6,C   0,C   1)   -130.8264         0.014598   
     83. D(H   8,C   6,C   0,C   5)    -65.6778         0.014598   
     84. D(H   8,C   6,C   0,C   1)    110.3356         0.014598   
     85. D(H   9,C   6,C   0,C   5)   -177.0571         0.014598   
     86. D(H  10,H   9,C   6,H   8)   -106.9586         0.001749   
     87. D(H  10,H   9,C   6,H   7)    117.1652         0.001749   
     88. D(H  10,H   9,C   6,C   0)     -1.6690         0.001749   
     89. D(C   1,H  10,H   9,C   6)      5.2725         0.001509   
     90. D(H   9,H  10,C   1,C   2)    176.0422         0.105702   
     91. D(H   9,H  10,C   1,C   0)     -7.0333         0.105702   
     92. D(O  16,N  14,C   3,H  17)     86.6196         0.006679   
     93. D(O  16,N  14,C   3,C   4)   -160.9390         0.006679   
     94. D(O  16,N  14,C   3,C   2)    -25.8799         0.006679   
     95. D(O  15,N  14,C   3,H  17)    -90.9967         0.006679   
     96. D(O  15,N  14,C   3,C   4)     21.4447         0.006679   
     97. D(O  15,N  14,C   3,C   2)    156.5038         0.006679   
    -----------------------------------------------------------------

Number of atoms                         .... 18
Number of degrees of freedom            .... 97

         *************************************************************
         *                GEOMETRY OPTIMIZATION CYCLE   1            *
         *************************************************************
---------------------------------
CARTESIAN COORDINATES (ANGSTROEM)
---------------------------------
  C     -6.301010    0.437170   -0.146890
  C     -7.175260    1.063880   -1.091580
  C     -7.257520    0.608670   -2.374610
  C     -6.516260   -0.596440   -2.789360
  C     -5.565280   -1.165780   -1.819320
  C     -5.514280   -0.690840   -0.539930
  C     -6.285500    0.910100    1.258030
  H     -4.747750    1.105420    1.565260
  H     -7.081710   -0.579640    2.063590
  H     -7.479880    2.310990    1.389620
  H     -7.741990    1.948440   -0.785970
  H     -7.879440    1.104710   -3.124710
  H     -4.923040   -1.984200   -2.156810
  H     -4.822680   -1.132590    0.180810
  N     -5.898920   -0.458280   -4.246120
  O     -4.953610   -1.165430   -4.475640
  O     -6.473570    0.306820   -4.974480
  H     -7.282180   -1.388150   -2.977510

----------------------------
CARTESIAN COORDINATES (A.U.)
----------------------------
  NO LB      ZA    FRAG     MASS         X           Y           Z
   0 C     6.0000    0    12.011  -11.907183    0.826132   -0.277582
   1 C     6.0000    0    12.011  -13.559276    2.010442   -2.062787
   2 C     6.0000    0    12.011  -13.714725    1.150220   -4.487363
   3 C     6.0000    0    12.011  -12.313947   -1.127108   -5.271126
   4 C     6.0000    0    12.011  -10.516855   -2.203005   -3.438017
   5 C     6.0000    0    12.011  -10.420479   -1.305498   -1.020320
   6 C     6.0000    0    12.011  -11.877874    1.719840    2.377332
   7 H     1.0000    0     1.008   -8.971947    2.088941    2.957913
   8 H     1.0000    0     1.008  -13.382492   -1.095361    3.899620
   9 H     1.0000    0     1.008  -14.134925    4.367138    2.626001
  10 H     1.0000    0     1.008  -14.630241    3.682018   -1.485268
  11 H     1.0000    0     1.008  -14.889984    2.087599   -5.904846
  12 H     1.0000    0     1.008   -9.303197   -3.749595   -4.075780
  13 H     1.0000    0     1.008   -9.113544   -2.140285    0.341681
  14 N     7.0000    0    14.007  -11.147343   -0.866024   -8.024004
  15 O     8.0000    0    15.999   -9.360966   -2.202344   -8.457734
  16 O     8.0000    0    15.999  -12.233274    0.579806   -9.400405
  17 H     1.0000    0     1.008  -13.761326   -2.623223   -5.626678

--------------------------------
INTERNAL COORDINATES (ANGSTROEM)
--------------------------------
 C      0   0   0     0.000000000000     0.00000000     0.00000000
 C      1   0   0     1.431613663912     0.00000000     0.00000000
 C      2   1   0     1.363872733286   120.76287846     0.00000000
 C      3   2   1     1.474372429951   120.47196234     4.21942616
 C      4   3   2     1.472918394752   117.08345044   352.25046467
 C      5   4   3     1.365652875258   120.44203642     8.22800964
 C      1   2   3     1.482465362631   119.47842329   183.14172521
 H      7   1   2     1.580257965587   103.52438680   229.17364681
 H      7   1   2     1.871417255798    98.59995431   110.33561581
 H      7   1   2     1.845630598088   107.63432454   358.95631252
 H      2   1   3     1.094087180530   119.07352587   183.09674992
 H      3   2   1     1.093384734666   121.88780168   183.22090541
 H      5   4   3     1.093701519657   117.72042494   187.22699476
 H      6   5   4     1.092208666007   120.07922596   178.61300819
 N      4   3   2     1.588189711212   112.47927963   219.27466528
 O     15   4   3     1.202643566898   115.43175273   156.50375725
 O     15   4   3     1.202542690344   115.16075487   334.12006262
 H      4   3   2     1.117514471047   106.37071350   110.77013579

---------------------------
INTERNAL COORDINATES (A.U.)
---------------------------
 C      0   0   0     0.000000000000     0.00000000     0.00000000
 C      1   0   0     2.705357754374     0.00000000     0.00000000
 C      2   1   0     2.577345947432   120.76287846     0.00000000
 C      3   2   1     2.786160112012   120.47196234     4.21942616
 C      4   3   2     2.783412383697   117.08345044   352.25046467
 C      5   4   3     2.580709928239   120.44203642     8.22800964
 C      1   2   3     2.801453538396   119.47842329   183.14172521
 H      7   1   2     2.986254775906   103.52438680   229.17364681
 H      7   1   2     3.536466095753    98.59995431   110.33561581
 H      7   1   2     3.487736374772   107.63432454   358.95631252
 H      2   1   3     2.067525137836   119.07352587   183.09674992
 H      3   2   1     2.066197707528   121.88780168   183.22090541
 H      5   4   3     2.066796344405   117.72042494   187.22699476
 H      6   5   4     2.063975259848   120.07922596   178.61300819
 N      4   3   2     3.001243602902   112.47927963   219.27466528
 O     15   4   3     2.272666978159   115.43175273   156.50375725
 O     15   4   3     2.272476349099   115.16075487   334.12006262
 H      4   3   2     2.111796300973   106.37071350   110.77013579

---------------------
BASIS SET INFORMATION
---------------------
There are 4 groups of distinct atoms

 Group   1 Type C   : 7s4p1d contracted to 3s2p1d pattern {511/31/1}
 Group   2 Type H   : 4s1p contracted to 2s1p pattern {31/1}
 Group   3 Type N   : 7s4p1d contracted to 3s2p1d pattern {511/31/1}
 Group   4 Type O   : 7s4p1d contracted to 3s2p1d pattern {511/31/1}

Atom   0C    basis set group =>   1
Atom   1C    basis set group =>   1
Atom   2C    basis set group =>   1
Atom   3C    basis set group =>   1
Atom   4C    basis set group =>   1
Atom   5C    basis set group =>   1
Atom   6C    basis set group =>   1
Atom   7H    basis set group =>   2
Atom   8H    basis set group =>   2
Atom   9H    basis set group =>   2
Atom  10H    basis set group =>   2
Atom  11H    basis set group =>   2
Atom  12H    basis set group =>   2
Atom  13H    basis set group =>   2
Atom  14N    basis set group =>   3
Atom  15O    basis set group =>   4
Atom  16O    basis set group =>   4
Atom  17H    basis set group =>   2
---------------------------------
AUXILIARY/J BASIS SET INFORMATION
---------------------------------
There are 4 groups of distinct atoms

 Group   1 Type C   : 12s5p4d2f1g contracted to 6s4p3d1f1g pattern {711111/2111/211/2/1}
 Group   2 Type H   : 5s2p1d contracted to 3s1p1d pattern {311/2/1}
 Group   3 Type N   : 12s5p4d2f1g contracted to 6s4p3d1f1g pattern {711111/2111/211/2/1}
 Group   4 Type O   : 12s5p4d2f1g contracted to 6s4p3d1f1g pattern {711111/2111/211/2/1}

Atom   0C    basis set group =>   1
Atom   1C    basis set group =>   1
Atom   2C    basis set group =>   1
Atom   3C    basis set group =>   1
Atom   4C    basis set group =>   1
Atom   5C    basis set group =>   1
Atom   6C    basis set group =>   1
Atom   7H    basis set group =>   2
Atom   8H    basis set group =>   2
Atom   9H    basis set group =>   2
Atom  10H    basis set group =>   2
Atom  11H    basis set group =>   2
Atom  12H    basis set group =>   2
Atom  13H    basis set group =>   2
Atom  14N    basis set group =>   3
Atom  15O    basis set group =>   4
Atom  16O    basis set group =>   4
Atom  17H    basis set group =>   2
------------------------------------------------------------------------------
                           ORCA GTO INTEGRAL CALCULATION
                           -- RI-GTO INTEGRALS CHOSEN --
------------------------------------------------------------------------------
------------------------------------------------------------------------------
                   ___                                                        
                  /   \      - P O W E R E D   B Y -                         
                 /     \                                                     
                 |  |  |   _    _      __       _____    __    __             
                 |  |  |  | |  | |    /  \     |  _  \  |  |  /  |          
                  \  \/   | |  | |   /    \    | | | |  |  | /  /          
                 / \  \   | |__| |  /  /\  \   | |_| |  |  |/  /          
                |  |  |   |  __  | /  /__\  \  |    /   |      \           
                |  |  |   | |  | | |   __   |  |    \   |  |\   \          
                \     /   | |  | | |  |  |  |  | |\  \  |  | \   \       
                 \___/    |_|  |_| |__|  |__|  |_| \__\ |__|  \__/        
                                                                              
                      - O R C A' S   B I G   F R I E N D -                    
                                      &                                       
                       - I N T E G R A L  F E E D E R -                       
                                                                              
 v1 FN, 2020, v2 2021                                                         
------------------------------------------------------------------------------


Reading SHARK input file para_ts_optfreq_2.SHARKINP.tmp ... ok
----------------------
SHARK INTEGRAL PACKAGE
----------------------

Number of atoms                             ...     18
Number of basis functions                   ...    180
Number of shells                            ...     84
Maximum angular momentum                    ...      2
Integral batch strategy                     ... SHARK/LIBINT Hybrid
RI-J (if used) integral strategy            ... SPLIT-RIJ (Revised 2003 algorithm where possible)
Printlevel                                  ...      1
Contraction scheme used                     ... SEGMENTED contraction
Coulomb Range Separation                    ... NOT USED
Exchange Range Separation                   ... NOT USED
Finite Nucleus Model                        ... NOT USED
Auxiliary Coulomb fitting basis             ... AVAILABLE
   # of basis functions in Aux-J            ...    578
   # of shells in Aux-J                     ...    190
   Maximum angular momentum in Aux-J        ...      4
Auxiliary J/K fitting basis                 ... NOT available
Auxiliary Correlation fitting basis         ... NOT available
Auxiliary 'external' fitting basis          ... NOT available
Integral threshold                          ...     2.500000e-11
Primitive cut-off                           ...     2.500000e-12
Primitive pair pre-selection threshold      ...     2.500000e-12

Calculating pre-screening integrals         ... done (  0.1 sec) Dimension = 84
Organizing shell pair data                  ... done (  0.1 sec)
Shell pair information
Total number of shell pairs                 ...      3570
Shell pairs after pre-screening             ...      3221
Total number of primitive shell pairs       ...     13034
Primitive shell pairs kept                  ...      8415
          la=0 lb=0:    980 shell pairs
          la=1 lb=0:   1168 shell pairs
          la=1 lb=1:    370 shell pairs
          la=2 lb=0:    405 shell pairs
          la=2 lb=1:    250 shell pairs
          la=2 lb=2:     48 shell pairs

Calculating one electron integrals          ... done (  0.1 sec)
Calculating RI/J V-Matrix + Cholesky decomp.... done (  0.2 sec)
Calculating Nuclear repulsion               ... done (  0.0 sec) ENN=    498.975515651511 Eh

SHARK setup successfully completed in   0.7 seconds

Maximum memory used throughout the entire GTOINT-calculation: 25.3 MB
-------------------------------------------------------------------------------
                                 ORCA SCF
-------------------------------------------------------------------------------

------------
SCF SETTINGS
------------
Hamiltonian:
 Density Functional     Method          .... DFT(GTOs)
 Exchange Functional    Exchange        .... B88
   X-Alpha parameter    XAlpha          ....  0.666667
   Becke's b parameter  XBeta           ....  0.004200
 Correlation Functional Correlation     .... LYP
 LDA part of GGA corr.  LDAOpt          .... VWN-5
 Gradients option       PostSCFGGA      .... off
 Hybrid DFT is turned on
   Fraction HF Exchange ScalHFX         ....  0.200000
   Scaling of DF-GGA-X  ScalDFX         ....  0.720000
   Scaling of DF-GGA-C  ScalDFC         ....  0.810000
   Scaling of DF-LDA-C  ScalLDAC        ....  1.000000
   Perturbative correction              ....  0.000000
   Density functional embedding theory  .... OFF
   NL short-range parameter             ....  4.800000
 RI-approximation to the Coulomb term is turned on
   Number of AuxJ basis functions       .... 578
   RIJ-COSX (HFX calculated with COS-X)).... on


General Settings:
 Integral files         IntName         .... para_ts_optfreq_2
 Hartree-Fock type      HFTyp           .... RHF
 Total Charge           Charge          ....    1
 Multiplicity           Mult            ....    1
 Number of Electrons    NEL             ....   72
 Basis Dimension        Dim             ....  180
 Nuclear Repulsion      ENuc            ....    498.9755156515 Eh

Convergence Acceleration:
 DIIS                   CNVDIIS         .... on
   Start iteration      DIISMaxIt       ....    12
   Startup error        DIISStart       ....  0.200000
   # of expansion vecs  DIISMaxEq       ....     5
   Bias factor          DIISBfac        ....   1.050
   Max. coefficient     DIISMaxC        ....  10.000
 Trust-Rad. Augm. Hess. CNVTRAH         .... auto
   Auto Start mean grad. ratio tolernc. ....  1.125000
   Auto Start start iteration           ....    20
   Auto Start num. interpolation iter.  ....    10
   Max. Number of Micro iterations      ....    16
   Max. Number of Macro iterations      .... Maxiter - #DIIS iter
   Number of Davidson start vectors     ....     2
   Converg. threshold I  (grad. norm)   ....   1.000e-05
   Converg. threshold II (energy diff.) ....   1.000e-08
   Grad. Scal. Fac. for Micro threshold ....   0.100
   Minimum threshold for Micro iter.    ....   0.010
   NR start threshold (gradient norm)   ....   0.001
   Initial trust radius                 ....   0.400
   Minimum AH scaling param. (alpha)    ....   1.000
   Maximum AH scaling param. (alpha)    .... 1000.000
   Orbital update algorithm             .... Taylor
   White noise on init. David. guess    .... on
   Maximum white noise                  ....   0.010
   Quad. conv. algorithm                .... NR
 SOSCF                  CNVSOSCF        .... on
   Start iteration      SOSCFMaxIt      ....   150
   Startup grad/error   SOSCFStart      ....  0.003300
 Level Shifting         CNVShift        .... on
   Level shift para.    LevelShift      ....    0.2500
   Turn off err/grad.   ShiftErr        ....    0.0010
 Zerner damping         CNVZerner       .... off
 Static damping         CNVDamp         .... on
   Fraction old density DampFac         ....    0.7000
   Max. Damping (<1)    DampMax         ....    0.9800
   Min. Damping (>=0)   DampMin         ....    0.0000
   Turn off err/grad.   DampErr         ....    0.1000
 Fernandez-Rico         CNVRico         .... off

SCF Procedure:
 Maximum # iterations   MaxIter         ....   125
 SCF integral mode      SCFMode         .... Direct
   Integral package                     .... SHARK and LIBINT hybrid scheme
 Reset frequency        DirectResetFreq ....    20
 Integral Threshold     Thresh          ....  2.500e-11 Eh
 Primitive CutOff       TCut            ....  2.500e-12 Eh

Convergence Tolerance:
 Convergence Check Mode ConvCheckMode   .... Total+1el-Energy
 Convergence forced     ConvForced      .... 0
 Energy Change          TolE            ....  1.000e-08 Eh
 1-El. energy change                    ....  1.000e-05 Eh
 Orbital Gradient       TolG            ....  1.000e-05
 Orbital Rotation angle TolX            ....  1.000e-05
 DIIS Error             TolErr          ....  5.000e-07


Diagonalization of the overlap matrix:
Smallest eigenvalue                        ... 3.357e-04
Time for diagonalization                   ...    0.013 sec
Threshold for overlap eigenvalues          ... 1.000e-08
Number of eigenvalues below threshold      ... 0
Time for construction of square roots      ...    0.015 sec
Total time needed                          ...    0.029 sec

Time for model grid setup =    1.361 sec

------------------------------
INITIAL GUESS: MODEL POTENTIAL
------------------------------
Loading Hartree-Fock densities                     ... done
Calculating cut-offs                               ... done
Initializing the effective Hamiltonian             ... done
Setting up the integral package (SHARK)            ... done
Starting the Coulomb interaction                   ... done (   0.8 sec)
Reading the grid                                   ... done
Mapping shells                                     ... done
Starting the XC term evaluation                    ... done (   1.8 sec)
  promolecular density results
     # of electrons  =     72.992280479
     EX              =    -61.126491770
     EC              =     -2.471456642
     EX+EC           =    -63.597948412
Transforming the Hamiltonian                       ... done (   0.0 sec)
Diagonalizing the Hamiltonian                      ... done (   0.0 sec)
Back transforming the eigenvectors                 ... done (   0.0 sec)
Now organizing SCF variables                       ... done
                      ------------------
                      INITIAL GUESS DONE (   4.0 sec)
                      ------------------
-------------------
DFT GRID GENERATION
-------------------

General Integration Accuracy     IntAcc      ... 4.388
Radial Grid Type                 RadialGrid  ... OptM3 with GC (2021)
Angular Grid (max. ang.)         AngularGrid ... 4 (Lebedev-302)
Angular grid pruning method      GridPruning ... 4 (adaptive)
Weight generation scheme         WeightScheme... Becke
Basis function cutoff            BFCut       ... 1.0000e-11
Integration weight cutoff        WCut        ... 1.0000e-14
Angular grids for H and He will be reduced by one unit
Partially contracted basis set               ... off
Rotationally invariant grid construction     ... off

Total number of grid points                  ...    86178
Total number of batches                      ...     1354
Average number of points per batch           ...       63
Average number of grid points per atom       ...     4788
Time for grid setup =    4.301 sec

--------------------
COSX GRID GENERATION
--------------------

GRIDX 1
-------
General Integration Accuracy     IntAcc      ... 3.816
Radial Grid Type                 RadialGrid  ... OptM3 with GC (2021)
Angular Grid (max. ang.)         AngularGrid ... 1 (Lebedev-50)
Angular grid pruning method      GridPruning ... 4 (adaptive)
Weight generation scheme         WeightScheme... Becke
Basis function cutoff            BFCut       ... 1.0000e-11
Integration weight cutoff        WCut        ... 1.0000e-14
Angular grids for H and He will be reduced by one unit
Partially contracted basis set               ... on
Rotationally invariant grid construction     ... off

Total number of grid points                  ...    10997
Total number of batches                      ...      181
Average number of points per batch           ...       60
Average number of grid points per atom       ...      611
UseSFitting                                  ... on

GRIDX 2
-------
General Integration Accuracy     IntAcc      ... 4.020
Radial Grid Type                 RadialGrid  ... OptM3 with GC (2021)
Angular Grid (max. ang.)         AngularGrid ... 2 (Lebedev-110)
Angular grid pruning method      GridPruning ... 4 (adaptive)
Weight generation scheme         WeightScheme... Becke
Basis function cutoff            BFCut       ... 1.0000e-11
Integration weight cutoff        WCut        ... 1.0000e-14
Angular grids for H and He will be reduced by one unit
Partially contracted basis set               ... on
Rotationally invariant grid construction     ... off

Total number of grid points                  ...    24167
Total number of batches                      ...      386
Average number of points per batch           ...       62
Average number of grid points per atom       ...     1343
UseSFitting                                  ... on

GRIDX 3
-------
General Integration Accuracy     IntAcc      ... 4.338
Radial Grid Type                 RadialGrid  ... OptM3 with GC (2021)
Angular Grid (max. ang.)         AngularGrid ... 3 (Lebedev-194)
Angular grid pruning method      GridPruning ... 4 (adaptive)
Weight generation scheme         WeightScheme... Becke
Basis function cutoff            BFCut       ... 1.0000e-11
Integration weight cutoff        WCut        ... 1.0000e-14
Angular grids for H and He will be reduced by one unit
Partially contracted basis set               ... on
Rotationally invariant grid construction     ... off

Total number of grid points                  ...    53054
Total number of batches                      ...      837
Average number of points per batch           ...       63
Average number of grid points per atom       ...     2947
UseSFitting                                  ... on

Time for X-Grid setup             =    6.179 sec

--------------
SCF ITERATIONS
--------------
ITER       Energy         Delta-E        Max-DP      RMS-DP      [F,P]     Damp
               ***  Starting incremental Fock matrix formation  ***
  0   -475.2301047087   0.000000000000 0.09701209  0.00252348  0.2301701 0.7000
  1   -475.3361672448  -0.106062536083 0.04650186  0.00154963  0.0731494 0.7000
                               ***Turning on DIIS***
  2   -475.3714940880  -0.035326843171 0.06550639  0.00247554  0.0217622 0.0000
  3   -475.4346687777  -0.063174689717 0.02916972  0.00096966  0.0385787 0.0000
  4   -475.4453615854  -0.010692807728 0.01638854  0.00039900  0.0144966 0.0000
                      *** Initiating the SOSCF procedure ***
                           *** Shutting down DIIS ***
                      *** Re-Reading the Fockian *** 
                      *** Removing any level shift *** 
ITER      Energy       Delta-E        Grad      Rot      Max-DP    RMS-DP
  5   -475.44708666  -0.0017250790  0.002183  0.002183  0.006099  0.000170
               *** Restarting incremental Fock matrix formation ***
  6   -475.44720932  -0.0001226531  0.000789  0.005949  0.004150  0.000104
  7   -475.44720238   0.0000069329  0.000953  0.001904  0.002667  0.000062
  8   -475.44723342  -0.0000310314  0.000214  0.001760  0.001132  0.000037
  9   -475.44723143   0.0000019853  0.000312  0.000839  0.000663  0.000021
 10   -475.44723556  -0.0000041334  0.000084  0.000332  0.000409  0.000015
 11   -475.44723497   0.0000005925  0.000157  0.000171  0.000247  0.000009
 12   -475.44723587  -0.0000008997  0.000032  0.000125  0.000101  0.000004
 13   -475.44723583   0.0000000407  0.000086  0.000096  0.000093  0.000002
 14   -475.44723588  -0.0000000525  0.000020  0.000087  0.000048  0.000003
 15   -475.44723587   0.0000000100  0.000014  0.000051  0.000029  0.000001
                  ***Gradient check signals convergence***
              ***Rediagonalizing the Fockian in SOSCF/NRSCF***

               *****************************************************
               *                     SUCCESS                       *
               *           SCF CONVERGED AFTER  16 CYCLES          *
               *****************************************************

Old exchange energy                            =    -12.226618251 Eh
New exchange energy                            =    -12.226679216 Eh
Exchange energy change after final integration =     -0.000060966 Eh
Total energy after final integration           =   -475.447296852 Eh
Final COS-X integration done in                =    52.331 sec

----------------
TOTAL SCF ENERGY
----------------

Total Energy       :         -475.44729685 Eh          -12937.57868 eV

Components:
Nuclear Repulsion  :          498.97551565 Eh           13577.81406 eV
Electronic Energy  :         -974.42281250 Eh          -26515.39274 eV
One Electron Energy:        -1621.25319435 Eh          -44116.54226 eV
Two Electron Energy:          646.83038184 Eh           17601.14952 eV
Max COSX asymmetry :            0.00000256 Eh               0.00007 eV

Virial components:
Potential Energy   :         -946.04748837 Eh          -25743.26092 eV
Kinetic Energy     :          470.60019151 Eh           12805.68224 eV
Virial Ratio       :            2.01029984


DFT components:
N(Alpha)           :       35.999993815359 electrons
N(Beta)            :       35.999993815359 electrons
N(Total)           :       71.999987630717 electrons
E(X)               :      -48.763661702885 Eh       
E(C)               :       -2.878389461077 Eh       
E(XC)              :      -51.642051163962 Eh       
DFET-embed. en.    :        0.000000000000 Eh       

---------------
SCF CONVERGENCE
---------------

  Last Energy change         ...   -1.2985e-08  Tolerance :   1.0000e-08
  Last MAX-Density change    ...    3.5527e-15  Tolerance :   1.0000e-07
  Last RMS-Density change    ...    4.7423e-17  Tolerance :   5.0000e-09
  Last Orbital Gradient      ...    1.7199e-06  Tolerance :   1.0000e-05
  Last Orbital Rotation      ...    6.0711e-06  Tolerance :   1.0000e-05

             **** THE GBW FILE WAS UPDATED (para_ts_optfreq_2.gbw) ****
             **** DENSITY para_ts_optfreq_2.scfp WAS UPDATED ****
             **** ENERGY FILE WAS UPDATED (para_ts_optfreq_2.en.tmp) ****
             **** THE GBW FILE WAS UPDATED (para_ts_optfreq_2.gbw) ****
             **** DENSITY para_ts_optfreq_2.scfp WAS UPDATED ****
----------------
ORBITAL ENERGIES
----------------

  NO   OCC          E(Eh)            E(eV) 
   0   2.0000     -19.339221      -526.2470 
   1   2.0000     -19.338827      -526.2362 
   2   2.0000     -14.733824      -400.9277 
   3   2.0000     -10.476615      -285.0832 
   4   2.0000     -10.452604      -284.4298 
   5   2.0000     -10.443366      -284.1784 
   6   2.0000     -10.424596      -283.6677 
   7   2.0000     -10.421893      -283.5941 
   8   2.0000     -10.403082      -283.0823 
   9   2.0000     -10.402387      -283.0634 
  10   2.0000      -1.401620       -38.1400 
  11   2.0000      -1.236643       -33.6508 
  12   2.0000      -1.075484       -29.2654 
  13   2.0000      -0.996294       -27.1105 
  14   2.0000      -0.960683       -26.1415 
  15   2.0000      -0.895643       -24.3717 
  16   2.0000      -0.811977       -22.0950 
  17   2.0000      -0.801795       -21.8180 
  18   2.0000      -0.766347       -20.8534 
  19   2.0000      -0.730607       -19.8808 
  20   2.0000      -0.720139       -19.5960 
  21   2.0000      -0.685403       -18.6508 
  22   2.0000      -0.669205       -18.2100 
  23   2.0000      -0.665721       -18.1152 
  24   2.0000      -0.645752       -17.5718 
  25   2.0000      -0.635890       -17.3034 
  26   2.0000      -0.607816       -16.5395 
  27   2.0000      -0.573480       -15.6052 
  28   2.0000      -0.553124       -15.0513 
  29   2.0000      -0.539114       -14.6701 
  30   2.0000      -0.494251       -13.4493 
  31   2.0000      -0.488373       -13.2893 
  32   2.0000      -0.479922       -13.0593 
  33   2.0000      -0.473415       -12.8823 
  34   2.0000      -0.464804       -12.6480 
  35   2.0000      -0.457824       -12.4580 
  36   0.0000      -0.325123        -8.8471 
  37   0.0000      -0.260954        -7.1009 
  38   0.0000      -0.224830        -6.1179 
  39   0.0000      -0.220829        -6.0091 
  40   0.0000      -0.211482        -5.7547 
  41   0.0000      -0.173014        -4.7080 
  42   0.0000      -0.109546        -2.9809 
  43   0.0000      -0.101522        -2.7626 
  44   0.0000      -0.065642        -1.7862 
  45   0.0000      -0.057677        -1.5695 
  46   0.0000      -0.037011        -1.0071 
  47   0.0000      -0.015809        -0.4302 
  48   0.0000      -0.005454        -0.1484 
  49   0.0000       0.021220         0.5774 
  50   0.0000       0.053682         1.4607 
  51   0.0000       0.082455         2.2437 
  52   0.0000       0.102388         2.7861 
  53   0.0000       0.120921         3.2904 
  54   0.0000       0.126791         3.4502 
  55   0.0000       0.166989         4.5440 
  56   0.0000       0.206788         5.6270 
  57   0.0000       0.221047         6.0150 
  58   0.0000       0.231988         6.3127 
  59   0.0000       0.239449         6.5157 
  60   0.0000       0.258625         7.0375 
  61   0.0000       0.272576         7.4172 
  62   0.0000       0.274934         7.4813 
  63   0.0000       0.290522         7.9055 
  64   0.0000       0.301007         8.1908 
  65   0.0000       0.306254         8.3336 
  66   0.0000       0.325955         8.8697 
  67   0.0000       0.333033         9.0623 
  68   0.0000       0.349516         9.5108 
  69   0.0000       0.359252         9.7757 
  70   0.0000       0.373059        10.1514 
  71   0.0000       0.383551        10.4370 
  72   0.0000       0.396181        10.7806 
  73   0.0000       0.405956        11.0466 
  74   0.0000       0.413034        11.2392 
  75   0.0000       0.434115        11.8129 
  76   0.0000       0.443156        12.0589 
  77   0.0000       0.463483        12.6120 
  78   0.0000       0.478621        13.0240 
  79   0.0000       0.487518        13.2660 
  80   0.0000       0.499910        13.6032 
  81   0.0000       0.511254        13.9119 
  82   0.0000       0.516227        14.0473 
  83   0.0000       0.526854        14.3364 
  84   0.0000       0.534574        14.5465 
  85   0.0000       0.581642        15.8273 
  86   0.0000       0.584252        15.8983 
  87   0.0000       0.605032        16.4638 
  88   0.0000       0.651940        17.7402 
  89   0.0000       0.677114        18.4252 
  90   0.0000       0.711793        19.3689 
  91   0.0000       0.728423        19.8214 
  92   0.0000       0.749010        20.3816 
  93   0.0000       0.775927        21.1140 
  94   0.0000       0.794331        21.6148 
  95   0.0000       0.847196        23.0534 
  96   0.0000       0.862104        23.4591 
  97   0.0000       0.888521        24.1779 
  98   0.0000       0.899125        24.4664 
  99   0.0000       0.922015        25.0893 
 100   0.0000       0.978630        26.6299 
 101   0.0000       0.984615        26.7927 
 102   0.0000       1.016494        27.6602 
 103   0.0000       1.052109        28.6293 
 104   0.0000       1.070276        29.1237 
 105   0.0000       1.094565        29.7846 
 106   0.0000       1.102925        30.0121 
 107   0.0000       1.129243        30.7283 
 108   0.0000       1.156317        31.4650 
 109   0.0000       1.182812        32.1859 
 110   0.0000       1.205891        32.8140 
 111   0.0000       1.235683        33.6246 
 112   0.0000       1.244723        33.8706 
 113   0.0000       1.286973        35.0203 
 114   0.0000       1.321445        35.9583 
 115   0.0000       1.349740        36.7283 
 116   0.0000       1.374578        37.4042 
 117   0.0000       1.388782        37.7907 
 118   0.0000       1.425386        38.7867 
 119   0.0000       1.464078        39.8396 
 120   0.0000       1.472253        40.0620 
 121   0.0000       1.474456        40.1220 
 122   0.0000       1.490540        40.5597 
 123   0.0000       1.521887        41.4126 
 124   0.0000       1.535513        41.7834 
 125   0.0000       1.548615        42.1400 
 126   0.0000       1.551217        42.2108 
 127   0.0000       1.567730        42.6601 
 128   0.0000       1.604908        43.6718 
 129   0.0000       1.611307        43.8459 
 130   0.0000       1.634799        44.4851 
 131   0.0000       1.663545        45.2674 
 132   0.0000       1.672244        45.5041 
 133   0.0000       1.695902        46.1478 
 134   0.0000       1.719736        46.7964 
 135   0.0000       1.724680        46.9309 
 136   0.0000       1.736271        47.2463 
 137   0.0000       1.785326        48.5812 
 138   0.0000       1.794897        48.8416 
 139   0.0000       1.821351        49.5615 
 140   0.0000       1.867049        50.8050 
 141   0.0000       1.872879        50.9636 
 142   0.0000       1.894254        51.5453 
 143   0.0000       1.922030        52.3011 
 144   0.0000       1.938876        52.7595 
 145   0.0000       1.997777        54.3623 
 146   0.0000       2.045384        55.6577 
 147   0.0000       2.069487        56.3136 
 148   0.0000       2.102564        57.2137 
 149   0.0000       2.109333        57.3979 
 150   0.0000       2.131575        58.0031 
 151   0.0000       2.165326        58.9215 
 152   0.0000       2.169194        59.0268 
 153   0.0000       2.199197        59.8432 
 154   0.0000       2.206052        60.0297 
 155   0.0000       2.240654        60.9713 
 156   0.0000       2.298739        62.5519 
 157   0.0000       2.366697        64.4011 
 158   0.0000       2.399599        65.2964 
 159   0.0000       2.436788        66.3084 
 160   0.0000       2.464047        67.0501 
 161   0.0000       2.464398        67.0597 
 162   0.0000       2.477518        67.4167 
 163   0.0000       2.488864        67.7254 
 164   0.0000       2.506368        68.2017 
 165   0.0000       2.522153        68.6313 
 166   0.0000       2.538616        69.0792 
 167   0.0000       2.613427        71.1150 
 168   0.0000       2.678973        72.8986 
 169   0.0000       2.695270        73.3420 
 170   0.0000       2.769851        75.3715 
 171   0.0000       2.852393        77.6176 
 172   0.0000       2.871712        78.1433 
 173   0.0000       2.967243        80.7428 
 174   0.0000       3.045885        82.8828 
 175   0.0000       3.178228        86.4840 
 176   0.0000       3.217890        87.5632 
 177   0.0000       3.295323        89.6703 
 178   0.0000       3.546312        96.5001 
 179   0.0000       3.642771        99.1248 

                    ********************************
                    * MULLIKEN POPULATION ANALYSIS *
                    ********************************

-----------------------
MULLIKEN ATOMIC CHARGES
-----------------------
   0 C :    0.080895
   1 C :    0.056424
   2 C :    0.027381
   3 C :    0.148471
   4 C :    0.019230
   5 C :    0.070180
   6 C :   -0.239151
   7 H :    0.182893
   8 H :    0.169182
   9 H :    0.142882
  10 H :    0.044916
  11 H :    0.095567
  12 H :    0.095051
  13 H :    0.050367
  14 N :    0.209223
  15 O :   -0.151281
  16 O :   -0.152224
  17 H :    0.149994
Sum of atomic charges:    1.0000000

--------------------------------
MULLIKEN REDUCED ORBITAL CHARGES
--------------------------------
  0 C s       :     3.106680  s :     3.106680
      pz      :     0.966224  p :     2.768005
      px      :     0.889751
      py      :     0.912030
      dz2     :     0.010815  d :     0.044419
      dxz     :     0.009861
      dyz     :     0.010917
      dx2y2   :     0.006754
      dxy     :     0.006073
  1 C s       :     3.190456  s :     3.190456
      pz      :     0.920766  p :     2.720638
      px      :     0.901473
      py      :     0.898399
      dz2     :     0.008907  d :     0.032481
      dxz     :     0.007605
      dyz     :     0.008228
      dx2y2   :     0.003433
      dxy     :     0.004309
  2 C s       :     3.241133  s :     3.241133
      pz      :     0.936651  p :     2.697529
      px      :     0.859837
      py      :     0.901041
      dz2     :     0.008439  d :     0.033957
      dxz     :     0.007585
      dyz     :     0.009004
      dx2y2   :     0.003873
      dxy     :     0.005056
  3 C s       :     2.915515  s :     2.915515
      pz      :     0.860342  p :     2.889938
      px      :     1.002401
      py      :     1.027195
      dz2     :     0.011991  d :     0.046076
      dxz     :     0.010001
      dyz     :     0.007074
      dx2y2   :     0.006319
      dxy     :     0.010690
  4 C s       :     3.237784  s :     3.237784
      pz      :     0.947369  p :     2.709132
      px      :     0.879521
      py      :     0.882242
      dz2     :     0.007975  d :     0.033854
      dxz     :     0.009890
      dyz     :     0.008468
      dx2y2   :     0.003014
      dxy     :     0.004508
  5 C s       :     3.195412  s :     3.195412
      pz      :     0.882633  p :     2.701847
      px      :     0.922650
      py      :     0.896564
      dz2     :     0.008664  d :     0.032561
      dxz     :     0.007283
      dyz     :     0.008379
      dx2y2   :     0.003327
      dxy     :     0.004908
  6 C s       :     3.590441  s :     3.590441
      pz      :     0.832411  p :     2.629109
      px      :     0.926307
      py      :     0.870390
      dz2     :     0.008813  d :     0.019601
      dxz     :     0.002043
      dyz     :     0.004154
      dx2y2   :     0.002669
      dxy     :     0.001922
  7 H s       :     0.806596  s :     0.806596
      pz      :     0.001376  p :     0.010511
      px      :     0.008271
      py      :     0.000864
  8 H s       :     0.825707  s :     0.825707
      pz      :     0.001375  p :     0.005111
      px      :     0.001061
      py      :     0.002674
  9 H s       :     0.851619  s :     0.851619
      pz      :     0.000488  p :     0.005499
      px      :     0.002107
      py      :     0.002904
 10 H s       :     0.931615  s :     0.931615
      pz      :     0.004358  p :     0.023469
      px      :     0.007008
      py      :     0.012103
 11 H s       :     0.880869  s :     0.880869
      pz      :     0.010293  p :     0.023564
      px      :     0.007393
      py      :     0.005879
 12 H s       :     0.881392  s :     0.881392
      pz      :     0.004793  p :     0.023558
      px      :     0.008110
      py      :     0.010654
 13 H s       :     0.926331  s :     0.926331
      pz      :     0.008904  p :     0.023302
      px      :     0.008835
      py      :     0.005563
 14 N s       :     3.323143  s :     3.323143
      pz      :     1.157846  p :     3.347846
      px      :     1.090328
      py      :     1.099672
      dz2     :     0.025009  d :     0.119788
      dxz     :     0.025579
      dyz     :     0.018036
      dx2y2   :     0.030230
      dxy     :     0.020934
 15 O s       :     3.866793  s :     3.866793
      pz      :     1.715535  p :     4.260180
      px      :     1.212913
      py      :     1.331731
      dz2     :     0.003117  d :     0.024308
      dxz     :     0.003738
      dyz     :     0.002397
      dx2y2   :     0.007089
      dxy     :     0.007968
 16 O s       :     3.867491  s :     3.867491
      pz      :     1.480235  p :     4.260423
      px      :     1.481741
      py      :     1.298448
      dz2     :     0.004014  d :     0.024310
      dxz     :     0.005070
      dyz     :     0.006335
      dx2y2   :     0.004527
      dxy     :     0.004363
 17 H s       :     0.826219  s :     0.826219
      pz      :     0.003729  p :     0.023787
      px      :     0.009764
      py      :     0.010294


                     *******************************
                     * LOEWDIN POPULATION ANALYSIS *
                     *******************************

----------------------
LOEWDIN ATOMIC CHARGES
----------------------
   0 C :    0.066503
   1 C :   -0.001983
   2 C :    0.106786
   3 C :   -0.000061
   4 C :    0.095058
   5 C :   -0.000730
   6 C :   -0.123537
   7 H :    0.162384
   8 H :    0.164149
   9 H :    0.127477
  10 H :    0.057256
  11 H :    0.070294
  12 H :    0.069765
  13 H :    0.060705
  14 N :    0.276385
  15 O :   -0.125604
  16 O :   -0.126736
  17 H :    0.121888

-------------------------------
LOEWDIN REDUCED ORBITAL CHARGES
-------------------------------
  0 C s       :     2.899745  s :     2.899745
      pz      :     1.075538  p :     2.927261
      px      :     0.897076
      py      :     0.954646
      dz2     :     0.028543  d :     0.106491
      dxz     :     0.022258
      dyz     :     0.026177
      dx2y2   :     0.013976
      dxy     :     0.015537
  1 C s       :     2.866343  s :     2.866343
      pz      :     1.048902  p :     3.048553
      px      :     0.984541
      py      :     1.015110
      dz2     :     0.025866  d :     0.087087
      dxz     :     0.020466
      dyz     :     0.022999
      dx2y2   :     0.007125
      dxy     :     0.010631
  2 C s       :     2.887505  s :     2.887505
      pz      :     1.075078  p :     2.920219
      px      :     0.901547
      py      :     0.943595
      dz2     :     0.022905  d :     0.085490
      dxz     :     0.018024
      dyz     :     0.023598
      dx2y2   :     0.008361
      dxy     :     0.012602
  3 C s       :     2.861733  s :     2.861733
      pz      :     0.922860  p :     3.027710
      px      :     1.041142
      py      :     1.063708
      dz2     :     0.027785  d :     0.110619
      dxz     :     0.025741
      dyz     :     0.016104
      dx2y2   :     0.013812
      dxy     :     0.027177
  4 C s       :     2.885777  s :     2.885777
      pz      :     1.054663  p :     2.933732
      px      :     0.920814
      py      :     0.958254
      dz2     :     0.022435  d :     0.085433
      dxz     :     0.024037
      dyz     :     0.022129
      dx2y2   :     0.006170
      dxy     :     0.010663
  5 C s       :     2.863373  s :     2.863373
      pz      :     1.057915  p :     3.050097
      px      :     0.995420
      py      :     0.996762
      dz2     :     0.024351  d :     0.087260
      dxz     :     0.018809
      dyz     :     0.023316
      dx2y2   :     0.007729
      dxy     :     0.013055
  6 C s       :     3.207839  s :     3.207839
      pz      :     0.999640  p :     2.875232
      px      :     0.962463
      py      :     0.913129
      dz2     :     0.019661  d :     0.040466
      dxz     :     0.004246
      dyz     :     0.009366
      dx2y2   :     0.004078
      dxy     :     0.003115
  7 H s       :     0.816439  s :     0.816439
      pz      :     0.001968  p :     0.021177
      px      :     0.017660
      py      :     0.001549
  8 H s       :     0.827653  s :     0.827653
      pz      :     0.001725  p :     0.008198
      px      :     0.001663
      py      :     0.004810
  9 H s       :     0.862894  s :     0.862894
      pz      :     0.000504  p :     0.009630
      px      :     0.003896
      py      :     0.005229
 10 H s       :     0.872751  s :     0.872751
      pz      :     0.012866  p :     0.069993
      px      :     0.021457
      py      :     0.035670
 11 H s       :     0.857033  s :     0.857033
      pz      :     0.030372  p :     0.072673
      px      :     0.023410
      py      :     0.018891
 12 H s       :     0.857673  s :     0.857673
      pz      :     0.014992  p :     0.072562
      px      :     0.024738
      py      :     0.032832
 13 H s       :     0.869920  s :     0.869920
      pz      :     0.025614  p :     0.069375
      px      :     0.026593
      py      :     0.017168
 14 N s       :     3.059657  s :     3.059657
      pz      :     1.149727  p :     3.413565
      px      :     1.133432
      py      :     1.130406
      dz2     :     0.052594  d :     0.250393
      dxz     :     0.053213
      dyz     :     0.038743
      dx2y2   :     0.054534
      dxy     :     0.051308
 15 O s       :     3.612384  s :     3.612384
      pz      :     1.731762  p :     4.466440
      px      :     1.328473
      py      :     1.406204
      dz2     :     0.006486  d :     0.046780
      dxz     :     0.006792
      dyz     :     0.004160
      dx2y2   :     0.010661
      dxy     :     0.018682
 16 O s       :     3.612146  s :     3.612146
      pz      :     1.564310  p :     4.467774
      px      :     1.529274
      py      :     1.374189
      dz2     :     0.006099  d :     0.046816
      dxz     :     0.009984
      dyz     :     0.014506
      dx2y2   :     0.006762
      dxy     :     0.009464
 17 H s       :     0.806765  s :     0.806765
      pz      :     0.013571  p :     0.071346
      px      :     0.028485
      py      :     0.029290


                      *****************************
                      * MAYER POPULATION ANALYSIS *
                      *****************************

  NA   - Mulliken gross atomic population
  ZA   - Total nuclear charge
  QA   - Mulliken gross atomic charge
  VA   - Mayer's total valence
  BVA  - Mayer's bonded valence
  FA   - Mayer's free valence

  ATOM       NA         ZA         QA         VA         BVA        FA
  0 C      5.9191     6.0000     0.0809     3.6921     3.6921    -0.0000
  1 C      5.9436     6.0000     0.0564     3.8817     3.8817     0.0000
  2 C      5.9726     6.0000     0.0274     3.8990     3.8990    -0.0000
  3 C      5.8515     6.0000     0.1485     3.7484     3.7484     0.0000
  4 C      5.9808     6.0000     0.0192     3.9122     3.9122     0.0000
  5 C      5.9298     6.0000     0.0702     3.8416     3.8416     0.0000
  6 C      6.2392     6.0000    -0.2392     3.5578     3.5578     0.0000
  7 H      0.8171     1.0000     0.1829     0.9547     0.9547     0.0000
  8 H      0.8308     1.0000     0.1692     0.9627     0.9627    -0.0000
  9 H      0.8571     1.0000     0.1429     0.9727     0.9727     0.0000
 10 H      0.9551     1.0000     0.0449     1.0034     1.0034     0.0000
 11 H      0.9044     1.0000     0.0956     1.0042     1.0042     0.0000
 12 H      0.9049     1.0000     0.0951     1.0036     1.0036     0.0000
 13 H      0.9496     1.0000     0.0504     0.9959     0.9959    -0.0000
 14 N      6.7908     7.0000     0.2092     3.9923     3.9923     0.0000
 15 O      8.1513     8.0000    -0.1513     2.0575     2.0575     0.0000
 16 O      8.1522     8.0000    -0.1522     2.0514     2.0514     0.0000
 17 H      0.8500     1.0000     0.1500     0.9736     0.9736     0.0000

  Mayer bond orders larger than 0.100000
B(  0-C ,  1-C ) :   1.2038 B(  0-C ,  5-C ) :   1.1818 B(  0-C ,  6-C ) :   1.0375 
B(  1-C ,  2-C ) :   1.5975 B(  1-C , 10-H ) :   0.9819 B(  2-C ,  3-C ) :   1.0388 
B(  2-C , 11-H ) :   0.9592 B(  3-C ,  4-C ) :   1.0374 B(  3-C , 14-N ) :   0.7291 
B(  3-C , 17-H ) :   0.8119 B(  4-C ,  5-C ) :   1.6137 B(  4-C , 12-H ) :   0.9604 
B(  5-C , 13-H ) :   0.9885 B(  6-C ,  7-H ) :   0.8407 B(  6-C ,  8-H ) :   0.7701 
B(  6-C ,  9-H ) :   0.8733 B( 14-N , 15-O ) :   1.6022 B( 14-N , 16-O ) :   1.5973 
B( 15-O , 16-O ) :   0.2942 

-------
TIMINGS
-------

Total SCF time: 0 days 0 hours 7 min 28 sec 

Total time                  ....     448.395 sec
Sum of individual times     ....     446.732 sec  ( 99.6%)

Fock matrix formation       ....     431.568 sec  ( 96.2%)
  Split-RI-J                ....      30.547 sec  (  7.1% of F)
  Chain of spheres X        ....     340.910 sec  ( 79.0% of F)
  XC integration            ....      59.773 sec  ( 13.9% of F)
    Basis function eval.    ....      22.887 sec  ( 38.3% of XC)
    Density eval.           ....      17.369 sec  ( 29.1% of XC)
    XC-Functional eval.     ....       4.742 sec  (  7.9% of XC)
    XC-Potential eval.      ....      11.967 sec  ( 20.0% of XC)
Diagonalization             ....       0.193 sec  (  0.0%)
Density matrix formation    ....       0.020 sec  (  0.0%)
Population analysis         ....       0.138 sec  (  0.0%)
Initial guess               ....       2.594 sec  (  0.6%)
Orbital Transformation      ....       0.000 sec  (  0.0%)
Orbital Orthonormalization  ....       0.000 sec  (  0.0%)
DIIS solution               ....       0.245 sec  (  0.1%)
SOSCF solution              ....       0.133 sec  (  0.0%)
Grid generation             ....      11.841 sec  (  2.6%)

Maximum memory used throughout the entire SCF-calculation: 75.6 MB


-------------------------------------------------------------------------------
                          DFT DISPERSION CORRECTION                            
                                                                               
                                 DFTD4 V2.5                                    
-------------------------------------------------------------------------------
The B3LYP functional is recognized
Active option DFTDOPT                   ...         5   

Starting D4
-------------------------   ----------------
Dispersion correction           -0.029059745
-------------------------   ----------------


-------------------------   --------------------
FINAL SINGLE POINT ENERGY      -475.476356596828
-------------------------   --------------------

------------------------------------------------------------------------------
                         ORCA SCF GRADIENT CALCULATION
------------------------------------------------------------------------------

 ... reading COSX grid (gridx3)
Gradient of the Kohn-Sham DFT energy:
Kohn-Sham wavefunction type      ... RKS
Hartree-Fock exchange scaling    ...    0.200
Number of operators              ...    1
Number of atoms                  ...   18
Basis set dimensions             ...  180
Integral neglect threshold       ... 2.5e-11
Integral primitive cutoff        ... 2.5e-12
SHARK Integral package           ... ON

Nuc. rep. gradient       (SHARK) ... done (  0.0 sec)
HCore & Overlap gradient (SHARK) ... done (  1.6 sec)
RI-J gradient            (SHARK) ... done (  9.6 sec)
COSX-gradient                    ... done ( 77.4 sec)
Exchange-correlation gradient    ... done
Dispersion correction            ... Starting D4


------------------- 
Dispersion Gradient 
------------------- 
   1  :    0.000032604    0.000121501    0.000346942
   2  :   -0.000369931    0.000418910    0.000076845
   3  :   -0.000452602    0.000271354   -0.000217285
   4  :   -0.000076271   -0.000168859   -0.000309085
   5  :    0.000282348   -0.000499403    0.000020143
   6  :    0.000330722   -0.000313756    0.000317428
   7  :   -0.000067516    0.000249954    0.000731119
   8  :    0.000284611    0.000126170    0.000224989
   9  :   -0.000120343   -0.000120502    0.000309974
  10  :   -0.000104857    0.000204822    0.000188774
  11  :   -0.000118639    0.000156057   -0.000006243
  12  :   -0.000138470    0.000112614   -0.000098476
  13  :    0.000124260   -0.000161895   -0.000012463
  14  :    0.000143713   -0.000119924    0.000073157
  15  :    0.000109937   -0.000082256   -0.000601200
  16  :    0.000273598   -0.000178693   -0.000419723
  17  :   -0.000032834    0.000114343   -0.000511810
  18  :   -0.000100329   -0.000130439   -0.000113085

  |G| =    0.001334644

done

------------------
CARTESIAN GRADIENT
------------------

   1   C   :    0.016811333   -0.003183485   -0.020884770
   2   C   :    0.000097072   -0.002231020    0.004836221
   3   C   :   -0.002497885   -0.001007085   -0.000425436
   4   C   :    0.002921543    0.003025803    0.001609644
   5   C   :   -0.002165065   -0.003539222   -0.005090512
   6   C   :   -0.008279732    0.001450222    0.006671168
   7   C   :   -0.007712760   -0.007852890   -0.015325201
   8   H   :    0.090806968    0.009820326    0.005109779
   9   H   :   -0.033906559   -0.060139315    0.026524475
  10   H   :   -0.057626684    0.061469202   -0.000601690
  11   H   :   -0.000403116    0.002017092   -0.000638686
  12   H   :    0.000237020    0.000273429   -0.000329072
  13   H   :    0.000950816    0.000139101   -0.000665903
  14   H   :    0.000790579    0.000906444   -0.000664989
  15   N   :    0.000531993   -0.000260198   -0.002266881
  16   O   :   -0.000167323    0.000011656    0.000411073
  17   O   :   -0.000009474   -0.000220391    0.000905943
  18   H   :   -0.000322837   -0.000650397    0.000882935

Difference to translation invariance:
           :    0.0000558913    0.0000292737    0.0000580961

Difference to rotation invariance:
           :    0.0005819880    0.0006409750   -0.0006610696

Norm of the cartesian gradient     ...    0.1491756568
RMS gradient                       ...    0.0203002356
MAX gradient                       ...    0.0908069684

-------
TIMINGS
-------

Total SCF gradient time            ...      112.801 sec

One electron gradient       ....       1.568 sec  (  1.4%)
RI-J Coulomb gradient       ....       9.571 sec  (  8.5%)
COSX gradient               ....      77.443 sec  ( 68.7%)
XC gradient                 ....      21.112 sec  ( 18.7%)

Maximum memory used throughout the entire SCFGRAD-calculation: 60.9 MB
------------------------------------------------------------------------------
                         ORCA GEOMETRY RELAXATION STEP
------------------------------------------------------------------------------

Reading the OPT-File                    .... done
Getting information on internals        .... done
Copying old internal coords+grads       .... done
Making the new internal coordinates     .... (new redundants).... done
Validating the new internal coordinates .... (new redundants).... done
Calculating the B-matrix                .... done
Calculating the G,G- and P matrices     .... done
Transforming gradient to internals      .... done
Projecting the internal gradient        .... done
Number of atoms                         ....  18
Number of internal coordinates          ....  97
Current Energy                          ....  -475.476356597 Eh
Current gradient norm                   ....     0.149175657 Eh/bohr
Maximum allowed component of the step   ....  0.300
Current trust radius                    ....  0.300
Evaluating the initial hessian          ....  (Almloef) done
Projecting the Hessian                  .... done
Forming the augmented Hessian           .... done
Diagonalizing the augmented Hessian     .... done
Last element of RFO vector              ....  0.751454489
Lowest eigenvalues of augmented Hessian:
 -0.127500300  0.006678944  0.006860560  0.012072003  0.016121992
Length of the computed step             ....  0.878010494
Warning: the length of the step is outside the trust region - taking restricted step instead
The input lambda is                     ....    -0.127500
   iter:   1  x=   -0.199486  g=    9.458911 f(x)=     0.680902
   iter:   2  x=   -0.289285  g=    3.142515 f(x)=     0.282196
   iter:   3  x=   -0.378031  g=    1.194657 f(x)=     0.106020
   iter:   4  x=   -0.432243  g=    0.581568 f(x)=     0.031529
   iter:   5  x=   -0.445235  g=    0.402985 f(x)=     0.005235
   iter:   6  x=   -0.445797  g=    0.371419 f(x)=     0.000209
   iter:   7  x=   -0.445798  g=    0.370129 f(x)=     0.000000
   iter:   8  x=   -0.445798  g=    0.370127 f(x)=     0.000000
   iter:   9  x=   -0.445798  g=    0.370127 f(x)=     0.000000
The output lambda is                    ....    -0.445798 (9 iterations)
The final length of the internal step   ....  0.300000000
Converting the step to cartesian space:
 Initial RMS(Int)=    0.0304603850
Transforming coordinates:
 Iter   0:  RMS(Cart)=    0.0421799732 RMS(Int)=    0.0304181349
 Iter   1:  RMS(Cart)=    0.0006830621 RMS(Int)=    0.0004407319
 Iter   2:  RMS(Cart)=    0.0000374076 RMS(Int)=    0.0000201734
 Iter   3:  RMS(Cart)=    0.0000020464 RMS(Int)=    0.0000010123
 Iter   4:  RMS(Cart)=    0.0000001057 RMS(Int)=    0.0000000504
 Iter   5:  RMS(Cart)=    0.0000000051 RMS(Int)=    0.0000000025
done
Storing new coordinates                 .... done

                                .--------------------.
          ----------------------|Geometry convergence|-------------------------
          Item                value                   Tolerance       Converged
          ---------------------------------------------------------------------
          RMS gradient        0.0149087104            0.0001000000      NO
          MAX gradient        0.0905660166            0.0003000000      NO
          RMS step            0.0304603850            0.0020000000      NO
          MAX step            0.1792459419            0.0040000000      NO
          ........................................................
          Max(Bonds)      0.0949      Max(Angles)    1.28
          Max(Dihed)        1.81      Max(Improp)    0.00
          ---------------------------------------------------------------------

The optimization has not yet converged - more geometry cycles are needed


    ---------------------------------------------------------------------------
                         Redundant Internal Coordinates
                            (Angstroem and degrees)

        Definition                    Value    dE/dq     Step     New-Value
    ----------------------------------------------------------------------------
     1. B(C   1,C   0)                1.4316  0.002474 -0.0023    1.4293   
     2. B(C   2,C   1)                1.3639  0.001185 -0.0006    1.3632   
     3. B(C   3,C   2)                1.4744 -0.000186  0.0002    1.4746   
     4. B(C   4,C   3)                1.4729 -0.002342  0.0016    1.4745   
     5. B(C   5,C   0)                1.4303 -0.004171  0.0022    1.4325   
     6. B(C   5,C   4)                1.3657  0.004342 -0.0020    1.3637   
     7. B(C   6,C   0)                1.4825  0.015487 -0.0093    1.4732   
     8. B(H   7,C   6)                1.5803  0.090566 -0.0949    1.4854   
     9. B(H   8,C   6)                1.8714  0.073713 -0.0837    1.7877   
    10. B(H   9,C   6)                1.8456  0.079972 -0.0888    1.7569   
    11. B(H  10,H   9)                2.2211 -0.000356  0.0010    2.2221   
    12. B(H  10,C   1)                1.0941  0.005101 -0.0042    1.0899   
    13. B(H  11,C   2)                1.0934  0.000218 -0.0001    1.0932   
    14. B(H  12,C   4)                1.0937  0.000660 -0.0004    1.0933   
    15. B(H  13,C   5)                1.0922 -0.000307  0.0002    1.0924   
    16. B(N  14,C   3)                1.5882  0.000970 -0.0007    1.5875   
    17. B(O  15,N  14)                1.2026 -0.000214  0.0001    1.2027   
    18. B(O  16,N  14)                1.2025 -0.000687  0.0003    1.2028   
    19. B(H  17,C   3)                1.1175  0.000539 -0.0004    1.1171   
    20. A(C   5,C   0,C   6)          120.41  0.000438    0.08    120.50   
    21. A(C   1,C   0,C   5)          119.99  0.000828   -0.04    119.95   
    22. A(C   1,C   0,C   6)          119.48 -0.001425   -0.02    119.45   
    23. A(C   0,C   1,C   2)          120.76 -0.002039    0.19    120.95   
    24. A(C   2,C   1,H  10)          120.09 -0.006711    0.64    120.74   
    25. A(C   0,C   1,H  10)          119.07  0.008761   -0.83    118.24   
    26. A(C   3,C   2,H  11)          117.63 -0.000624    0.06    117.69   
    27. A(C   1,C   2,H  11)          121.89 -0.000378    0.04    121.93   
    28. A(C   1,C   2,C   3)          120.47  0.001003   -0.10    120.37   
    29. A(C   4,C   3,H  17)          106.23 -0.000907    0.09    106.32   
    30. A(N  14,C   3,H  17)          100.00  0.000362   -0.03     99.97   
    31. A(C   2,C   3,H  17)          106.37 -0.000429    0.04    106.41   
    32. A(C   4,C   3,N  14)          112.75 -0.000087   -0.00    112.75   
    33. A(C   2,C   3,N  14)          112.48  0.000119   -0.02    112.46   
    34. A(C   2,C   3,C   4)          117.08  0.000746   -0.06    117.02   
    35. A(C   5,C   4,H  12)          121.83  0.000896   -0.06    121.77   
    36. A(C   3,C   4,H  12)          117.72  0.000450   -0.03    117.69   
[...]
     12       0.050387  -0.072278   0.036640   0.022375   0.001552   0.000054
     13      -0.058231  -0.045538   0.068370  -0.013218   0.000485   0.000372
     14      -0.025873  -0.339615   0.309899  -0.015245   0.001337   0.000876
     15      -0.106307   0.022350   0.034353  -0.014768   0.000754   0.000292
     16       0.152297   0.073670  -0.158024   0.021586  -0.000841  -0.000709
     17       0.081951   0.275224  -0.313756   0.016143  -0.001186  -0.001431
     18      -0.016844   0.021816   0.005006  -0.001274   0.000226   0.011137
     19      -0.008150  -0.019357  -0.017237   0.001376  -0.000333  -0.012518
     20      -0.056479   0.011664  -0.023199  -0.000515   0.000744   0.053845
     21      -0.046208   0.013201  -0.009807   0.000611  -0.010209  -0.544503
     22       0.293761  -0.078446   0.107321  -0.000437  -0.003156  -0.119019
     23      -0.189210   0.088103  -0.016130  -0.006970  -0.002668  -0.133588
     24      -0.307479   0.097011  -0.090183  -0.002698   0.004909   0.223298
     25       0.077438  -0.014257   0.024125  -0.001573   0.009879   0.546496
     26      -0.095405   0.051553   0.002319  -0.004330  -0.009229  -0.456239
     27       0.176101  -0.048808   0.037865   0.001874   0.002214   0.188887
     28       0.017360  -0.029312  -0.005990   0.001065  -0.003414  -0.271248
     29       0.545333  -0.207352   0.048452   0.011768  -0.000709  -0.045275
     30       0.034675   0.193896   0.194167   0.014032   0.002011  -0.002023
     31       0.055332  -0.196996  -0.141746   0.007604  -0.000209   0.003119
     32       0.280545   0.167608   0.274388   0.036322  -0.000139   0.001629
     33      -0.020230   0.199852   0.168980   0.012356   0.002150   0.000096
     34       0.138504  -0.287545  -0.256235   0.031206  -0.005773   0.000001
     35       0.235923  -0.155695  -0.098086   0.075950   0.009439   0.000329
     36      -0.005795   0.187287  -0.208547  -0.003655  -0.008118  -0.000015
     37      -0.071011  -0.125970   0.137412  -0.039233   0.005033  -0.000214
     38      -0.161544   0.267739  -0.234051  -0.068754   0.005831   0.000224
     39       0.015994   0.200687  -0.217901   0.005473   0.000044   0.002102
     40      -0.077359  -0.209914   0.295510  -0.027744   0.001940  -0.001130
     41      -0.178924  -0.002960   0.145854  -0.031766  -0.000793   0.003752
     42      -0.017410  -0.002002   0.017756   0.575358   0.000806  -0.000142
     43       0.012507   0.004204  -0.002782  -0.557020   0.000266   0.000001
     44       0.002532  -0.007338  -0.049766   0.197093  -0.001353   0.000433
     45       0.016064  -0.003099  -0.023574  -0.304041  -0.000319   0.000114
     46      -0.009511   0.000515   0.015774   0.224394   0.000224  -0.000055
     47      -0.005939   0.005449   0.010055   0.063132   0.000213  -0.000099
     48       0.002150   0.004060   0.009603  -0.181037   0.000085  -0.000024
     49      -0.004714  -0.003749  -0.015918   0.245123  -0.000204   0.000081
     50       0.005232  -0.000183   0.020372  -0.229295   0.000342  -0.000159
     51      -0.016861   0.021576  -0.010419   0.031955  -0.667885   0.011717
     52       0.026959  -0.022566  -0.000445  -0.037870  -0.705449   0.012497
     53      -0.013115   0.008332   0.016043   0.023051  -0.221761   0.002893
                 48         49         50         51         52         53    
      0      -0.000622  -0.000440  -0.001615  -0.001329   0.001237  -0.000230
      1      -0.000467  -0.000238   0.002126   0.001012  -0.001163  -0.000384
      2       0.000511  -0.002000   0.000415  -0.001300   0.000751  -0.001378
      3      -0.000587   0.002110   0.002057   0.038197  -0.021975   0.018679
      4      -0.000353  -0.003087  -0.003110  -0.054614   0.033191  -0.027946
      5       0.000365  -0.000834  -0.001229  -0.017461   0.015845  -0.012801
      6      -0.000052  -0.000309  -0.000443  -0.029392  -0.028987   0.024525
      7      -0.000040   0.000185   0.000210   0.025444   0.022943  -0.019863
      8      -0.000055  -0.000440  -0.000650  -0.034885  -0.040434   0.033679
      9      -0.000094   0.000154   0.000408  -0.000098   0.001460   0.001231
     10      -0.000072   0.000203   0.000091  -0.000927  -0.001613   0.001129
     11       0.000074   0.000166  -0.000034   0.000043   0.000395   0.001094
     12       0.000045   0.000091  -0.020070   0.001385  -0.030455  -0.036797
     13      -0.000023  -0.000279   0.024120  -0.001322   0.039385   0.047145
     14      -0.000092  -0.000392   0.006745   0.000011   0.018238   0.021481
     15       0.000433   0.000493   0.048904  -0.002423  -0.011553  -0.016020
     16       0.000348  -0.000286  -0.034256   0.001741   0.006699   0.009853
     17       0.000082   0.000489   0.054556  -0.002713  -0.017274  -0.022462
     18      -0.069927  -0.059023   0.000715   0.002110  -0.001042   0.000254
     19      -0.053825   0.071672  -0.000697  -0.002606   0.001311  -0.000599
     20       0.013647  -0.001627   0.000222  -0.000150  -0.000003  -0.000124
     21       0.734251   0.238170  -0.004801  -0.006542   0.003867   0.000913
     22       0.139928   0.058955  -0.001956  -0.001119   0.000886   0.000541
     23       0.204492   0.061018  -0.002351  -0.000893   0.000954   0.000980
     24       0.164830  -0.069498   0.001548   0.001817  -0.001199  -0.000055
     25       0.452796  -0.141735   0.002014   0.004095  -0.002401   0.000619
     26      -0.390964   0.123947  -0.003096  -0.002953   0.001929   0.000853
     27      -0.055713   0.534098  -0.004412  -0.020071   0.009552  -0.004613
     28       0.055808  -0.761469   0.005508   0.029247  -0.013930   0.007008
     29       0.015217  -0.142162  -0.000182   0.006876  -0.003126   0.002384
     30       0.000815  -0.021590  -0.026725  -0.428712   0.252648  -0.210487
     31      -0.000828   0.032465   0.038999   0.622383  -0.367537   0.306728
     32      -0.000577   0.013373   0.013826   0.220092  -0.132087   0.110335
     33       0.000992   0.004417   0.006763   0.335960   0.335116  -0.276944
     34       0.000467  -0.003576  -0.005332  -0.284450  -0.282585   0.234167
     35       0.000089   0.005600   0.007720   0.419086   0.420961  -0.349818
     36      -0.000020  -0.001380   0.229840  -0.011293   0.354154   0.418683
     37       0.000540   0.001794  -0.287283   0.013425  -0.443874  -0.523943
     38       0.000012   0.000731  -0.111396   0.005774  -0.175619  -0.208724
     39      -0.001842  -0.004924  -0.554487   0.025080   0.137925   0.184334
     40      -0.000221   0.002975   0.385872  -0.017667  -0.095452  -0.127276
     41      -0.000986  -0.006364  -0.620982   0.028124   0.156155   0.208398
     42       0.000044   0.000046  -0.000431  -0.000252  -0.000860  -0.000487
     43      -0.000008   0.000005   0.000239   0.000560   0.000848  -0.000058
     44      -0.000038  -0.000160   0.000037  -0.000360  -0.000274   0.000303
     45      -0.000011  -0.000034   0.000142  -0.000013   0.000214   0.000237
     46       0.000005   0.000015  -0.000147  -0.000047  -0.000256  -0.000196
     47       0.000005   0.000033   0.000166   0.000083   0.000301   0.000226
     48      -0.000003   0.000013   0.000059   0.000271   0.000329  -0.000120
     49      -0.000012  -0.000036  -0.000020  -0.000278  -0.000288   0.000186
     50       0.000024   0.000061  -0.000054  -0.000091  -0.000133   0.000020
     51      -0.000026  -0.001316  -0.001875   0.002459  -0.000650  -0.007337
     52       0.000341  -0.001442  -0.001278   0.004065   0.001207  -0.008118
     53      -0.000374  -0.000125  -0.001075   0.001717  -0.000113  -0.004748


-----------
IR SPECTRUM
-----------

 Mode   freq       eps      Int      T**2         TX        TY        TZ
       cm**-1   L/(mol*cm) km/mol    a.u.
----------------------------------------------------------------------------
  7:     47.73   0.000003    0.01  0.000019  (-0.001253 -0.002558 -0.003234)
  8:     68.74   0.000739    3.73  0.003353  (-0.017852 -0.031713 -0.045037)
  9:    204.46   0.000621    3.14  0.000948  ( 0.025461 -0.013974  0.010233)
 10:    210.80   0.000445    2.25  0.000659  ( 0.001398  0.022304  0.012630)
 11:    320.96   0.002326   11.76  0.002262  ( 0.008398 -0.005836 -0.046444)
 12:    348.85   0.000078    0.40  0.000070  (-0.006957  0.004105  0.002180)
 13:    366.31   0.000006    0.03  0.000005  (-0.002225  0.000161 -0.000271)
 14:    486.88   0.000359    1.82  0.000230  (-0.012991 -0.005779  0.005302)
 15:    492.54   0.000203    1.03  0.000129  ( 0.001027  0.009807 -0.005597)
 16:    572.79   0.001621    8.19  0.000883  ( 0.018005  0.008831 -0.021933)
 17:    604.54   0.001076    5.44  0.000556  ( 0.015321 -0.016620  0.006678)
 18:    631.28   0.005980   30.22  0.002956  (-0.035137 -0.021902  0.035237)
 19:    730.12   0.004443   22.45  0.001899  ( 0.032349  0.025123 -0.014873)
 20:    784.61   0.003990   20.16  0.001587  (-0.005172  0.008166  0.038644)
 21:    796.74   0.000335    1.69  0.000131  ( 0.002167 -0.010502 -0.004010)
 22:    842.77   0.039299  198.60  0.014552  (-0.037854 -0.000828  0.114535)
 23:    874.08   0.002326   11.76  0.000831  ( 0.011717  0.017484  0.019688)
 24:    912.40   0.025554  129.14  0.008740  (-0.015151  0.015000  0.091026)
 25:    980.26   0.004204   21.24  0.001338  (-0.009775  0.015207  0.031804)
 26:    995.03   0.000579    2.92  0.000182  ( 0.007543 -0.002878  0.010786)
 27:   1012.04   0.000726    3.67  0.000224  (-0.014525 -0.002761 -0.002305)
 28:   1020.20   0.005221   26.38  0.001597  (-0.022263 -0.019295  0.027000)
 29:   1046.51   0.002264   11.44  0.000675  ( 0.004191  0.011725  0.022805)
 30:   1074.77   0.001274    6.44  0.000370  ( 0.013557 -0.011283  0.007677)
 31:   1099.41   0.018037   91.15  0.005120  ( 0.019720 -0.002702 -0.068728)
 32:   1141.24   0.001680    8.49  0.000459  ( 0.012782 -0.008922  0.014708)
 33:   1199.47   0.006486   32.78  0.001687  (-0.003819 -0.011578 -0.039228)
 34:   1252.54   0.005774   29.18  0.001439  ( 0.000682 -0.005485 -0.037524)
 35:   1305.57   0.004936   24.95  0.001180  ( 0.019880 -0.016166  0.022876)
 36:   1336.58   0.017280   87.33  0.004035  (-0.012169 -0.001604 -0.062321)
 37:   1385.01   0.000779    3.94  0.000176  ( 0.002914 -0.001703 -0.012815)
 38:   1403.40   0.042070  212.60  0.009355  (-0.031572  0.000860  0.091418)
 39:   1419.64   0.002810   14.20  0.000618  ( 0.022213  0.011123 -0.000683)
 40:   1446.84   0.004836   24.44  0.001043  (-0.009361  0.017189 -0.025689)
 41:   1475.38   0.026116  131.98  0.005524  ( 0.013343 -0.023140 -0.069357)
 42:   1503.29   0.006969   35.22  0.001447  ( 0.023986 -0.023015  0.018483)
 43:   1557.51   0.012986   65.63  0.002602  ( 0.034261 -0.034000  0.016498)
 44:   1668.88   0.045158  228.21  0.008444  ( 0.004122  0.032549  0.085835)
 45:   1782.87   0.050939  257.42  0.008916  ( 0.065802 -0.063665  0.023086)
 46:   2943.97   0.012640   63.88  0.001340  (-0.021293 -0.025301 -0.015693)
 47:   3008.99   0.012654   63.95  0.001312  (-0.001723 -0.006267 -0.035639)
 48:   3067.31   0.001309    6.62  0.000133  ( 0.008962  0.007138 -0.001384)
 49:   3168.03   0.001967    9.94  0.000194  ( 0.001642  0.002718  0.013554)
 50:   3201.02   0.000668    3.38  0.000065  (-0.000310 -0.002297 -0.007729)
 51:   3205.23   0.001275    6.45  0.000124  ( 0.002938  0.000009  0.010749)
 52:   3215.85   0.006629   33.50  0.000643  ( 0.016891 -0.018136  0.005388)
 53:   3217.65   0.001371    6.93  0.000133  ( 0.002692 -0.004227 -0.010385)

* The epsilon (eps) is given for a Dirac delta lineshape.
** The dipole moment derivative (T) already includes vibrational overlap.

The first frequency considered to be a vibration is 7
The total number of vibrations considered is 47


--------------------------
THERMOCHEMISTRY AT 298.15K
--------------------------

Temperature         ... 298.15 K
Pressure            ... 1.00 atm
Total Mass          ... 138.15 AMU

Throughout the following assumptions are being made:
  (1) The electronic state is orbitally nondegenerate
  (2) There are no thermally accessible electronically excited states
  (3) Hindered rotations indicated by low frequency modes are not
      treated as such but are treated as vibrations and this may
      cause some error
  (4) All equations used are the standard statistical mechanics
      equations for an ideal gas
  (5) All vibrations are strictly harmonic

freq.      47.73  E(vib)   ...       0.53 
freq.      68.74  E(vib)   ...       0.50 
freq.     204.46  E(vib)   ...       0.35 
freq.     210.80  E(vib)   ...       0.34 
freq.     320.96  E(vib)   ...       0.25 
freq.     348.85  E(vib)   ...       0.23 
freq.     366.31  E(vib)   ...       0.22 
freq.     486.88  E(vib)   ...       0.15 
freq.     492.54  E(vib)   ...       0.14 
freq.     572.79  E(vib)   ...       0.11 
freq.     604.54  E(vib)   ...       0.10 
freq.     631.28  E(vib)   ...       0.09 
freq.     730.12  E(vib)   ...       0.06 
freq.     784.61  E(vib)   ...       0.05 
freq.     796.74  E(vib)   ...       0.05 
freq.     842.77  E(vib)   ...       0.04 
freq.     874.08  E(vib)   ...       0.04 
freq.     912.40  E(vib)   ...       0.03 
freq.     980.26  E(vib)   ...       0.02 
freq.     995.03  E(vib)   ...       0.02 
freq.    1012.04  E(vib)   ...       0.02 
freq.    1020.20  E(vib)   ...       0.02 
freq.    1046.51  E(vib)   ...       0.02 
freq.    1074.77  E(vib)   ...       0.02 
freq.    1099.41  E(vib)   ...       0.02 
freq.    1141.24  E(vib)   ...       0.01 
freq.    1199.47  E(vib)   ...       0.01 
freq.    1252.54  E(vib)   ...       0.01 
freq.    1305.57  E(vib)   ...       0.01 
freq.    1336.58  E(vib)   ...       0.01 
freq.    1385.01  E(vib)   ...       0.00 
freq.    1403.40  E(vib)   ...       0.00 
freq.    1419.64  E(vib)   ...       0.00 
freq.    1446.84  E(vib)   ...       0.00 
freq.    1475.38  E(vib)   ...       0.00 
freq.    1503.29  E(vib)   ...       0.00 
freq.    1557.51  E(vib)   ...       0.00 
freq.    1668.88  E(vib)   ...       0.00 
freq.    1782.87  E(vib)   ...       0.00 
freq.    2943.97  E(vib)   ...       0.00 
freq.    3008.99  E(vib)   ...       0.00 
freq.    3067.31  E(vib)   ...       0.00 
freq.    3168.03  E(vib)   ...       0.00 
freq.    3201.02  E(vib)   ...       0.00 
freq.    3205.23  E(vib)   ...       0.00 
freq.    3215.85  E(vib)   ...       0.00 
freq.    3217.65  E(vib)   ...       0.00 

------------
INNER ENERGY
------------

The inner energy is: U= E(el) + E(ZPE) + E(vib) + E(rot) + E(trans)
    E(el)   - is the total energy from the electronic structure calculation
              = E(kin-el) + E(nuc-el) + E(el-el) + E(nuc-nuc)
    E(ZPE)  - the the zero temperature vibrational energy from the frequency calculation
    E(vib)  - the the finite temperature correction to E(ZPE) due to population
              of excited vibrational states
    E(rot)  - is the rotational thermal energy
    E(trans)- is the translational thermal energy

Summary of contributions to the inner energy U:
Electronic energy                ...   -475.76283814 Eh
Zero point energy                ...      0.13995026 Eh      87.82 kcal/mol
Thermal vibrational correction   ...      0.00556464 Eh       3.49 kcal/mol
Thermal rotational correction    ...      0.00141627 Eh       0.89 kcal/mol
Thermal translational correction ...      0.00141627 Eh       0.89 kcal/mol
-----------------------------------------------------------------------
Total thermal energy                   -475.61449070 Eh


Summary of corrections to the electronic energy:
(perhaps to be used in another calculation)
Total thermal correction                  0.00839718 Eh       5.27 kcal/mol
Non-thermal (ZPE) correction              0.13995026 Eh      87.82 kcal/mol
-----------------------------------------------------------------------
Total correction                          0.14834744 Eh      93.09 kcal/mol


--------
ENTHALPY
--------

The enthalpy is H = U + kB*T
                kB is Boltzmann's constant
Total free energy                 ...   -475.61449070 Eh 
Thermal Enthalpy correction       ...      0.00094421 Eh       0.59 kcal/mol
-----------------------------------------------------------------------
Total Enthalpy                    ...   -475.61354649 Eh


Note: Only C1 symmetry has been detected, increase convergence thresholds 
      if your molecule has a higher symmetry. Symmetry factor of 1.0 is   
      used for the rotational entropy correction. 
 

Note: Rotational entropy computed according to Herzberg 
Infrared and Raman Spectra, Chapter V,1, Van Nostrand Reinhold, 1945 
Point Group:  C1, Symmetry Number:   1  
Rotational constants in cm-1:     0.112623     0.027778     0.023287 

Vibrational entropy computed according to the QRRHO of S. Grimme
Chem.Eur.J. 2012 18 9955


-------
ENTROPY
-------

The entropy contributions are T*S = T*(S(el)+S(vib)+S(rot)+S(trans))
     S(el)   - electronic entropy
     S(vib)  - vibrational entropy
     S(rot)  - rotational entropy
     S(trans)- translational entropy
The entropies will be listed as multiplied by the temperature to get
units of energy

Electronic entropy                ...      0.00000000 Eh      0.00 kcal/mol
Vibrational entropy               ...      0.00927655 Eh      5.82 kcal/mol
Rotational entropy                ...      0.01400845 Eh      8.79 kcal/mol
Translational entropy             ...      0.01932890 Eh     12.13 kcal/mol
-----------------------------------------------------------------------
Final entropy term                ...      0.04261390 Eh     26.74 kcal/mol

In case the symmetry of your molecule has not been determined correctly
or in case you have a reason to use a different symmetry number we print 
out the resulting rotational entropy values for sn=1,12 :
 --------------------------------------------------------
|  sn= 1 | S(rot)=       0.01400845 Eh      8.79 kcal/mol|
|  sn= 2 | S(rot)=       0.01335400 Eh      8.38 kcal/mol|
|  sn= 3 | S(rot)=       0.01297117 Eh      8.14 kcal/mol|
|  sn= 4 | S(rot)=       0.01269954 Eh      7.97 kcal/mol|
|  sn= 5 | S(rot)=       0.01248885 Eh      7.84 kcal/mol|
|  sn= 6 | S(rot)=       0.01231671 Eh      7.73 kcal/mol|
|  sn= 7 | S(rot)=       0.01217116 Eh      7.64 kcal/mol|
|  sn= 8 | S(rot)=       0.01204508 Eh      7.56 kcal/mol|
|  sn= 9 | S(rot)=       0.01193388 Eh      7.49 kcal/mol|
|  sn=10 | S(rot)=       0.01183440 Eh      7.43 kcal/mol|
|  sn=11 | S(rot)=       0.01174441 Eh      7.37 kcal/mol|
|  sn=12 | S(rot)=       0.01166225 Eh      7.32 kcal/mol|
 --------------------------------------------------------


-------------------
GIBBS FREE ENERGY
-------------------

The Gibbs free energy is G = H - T*S

Total enthalpy                    ...   -475.61354649 Eh 
Total entropy correction          ...     -0.04261390 Eh    -26.74 kcal/mol
-----------------------------------------------------------------------
Final Gibbs free energy         ...   -475.65616039 Eh

For completeness - the Gibbs free energy minus the electronic energy
G-E(el)                           ...      0.10667775 Eh     66.94 kcal/mol


Timings for individual modules:

Sum of individual times         ...    10763.650 sec (= 179.394 min)
GTO integral calculation        ...       31.561 sec (=   0.526 min)   0.3 %
SCF iterations                  ...     6935.994 sec (= 115.600 min)  64.4 %
SCF Gradient evaluation         ...     1826.132 sec (=  30.436 min)  17.0 %
Geometry relaxation             ...       12.481 sec (=   0.208 min)   0.1 %
Analytical frequency calculation...     1957.482 sec (=  32.625 min)  18.2 %
                             ****ORCA TERMINATED NORMALLY****
TOTAL RUN TIME: 0 days 2 hours 59 minutes 53 seconds 333 msec
